    1    1   20    1
  0.1038230E+03  0.4700000E-09  0.4700000E-09  0.4700000E-09  0.5000000E-15
  1.000000000000000E-004
  CAR 
 Diamond si                              
      4     90      8
 
  0.0000000E+00  0.0000000E+00  0.0000000E+00  0.1111111E-01
    1       -5.797046   1.000000
    2       11.016650   0.000000
    3       11.016651   0.000000
    4       11.016651   0.000000
    5       12.408185   0.000000
    6       12.408185   0.000000
    7       17.403991   0.000000
    8       26.077118   0.000000
 
  0.0000000E+00  0.3571429E-01  0.0000000E+00  0.1111111E-01
    1       -5.774635   1.000000
    2       10.462806   0.000000
    3       11.034715   0.000000
    4       11.034715   0.000000
    5       12.426544   0.000000
    6       12.925032   0.000000
    7       17.493387   0.000000
    8       25.882886   0.000000
 
  0.0000000E+00  0.7142857E-01  0.0000000E+00  0.1111111E-01
    1       -5.707442   1.000000
    2        9.517020   0.000000
    3       11.088747   0.000000
    4       11.088747   0.000000
    5       12.481346   0.000000
    6       13.747484   0.000000
    7       17.772425   0.000000
    8       25.371205   0.000000
 
  0.0000000E+00  0.1071429E+00  0.0000000E+00  0.1111111E-01
    1       -5.595761   1.000000
    2        8.517559   0.000000
    3       11.178217   0.000000
    4       11.178217   0.000000
    5       12.571750   0.000000
    6       14.510846   0.000000
    7       18.262670   0.000000
    8       24.673414   0.000000
 
  0.0000000E+00  0.1428571E+00  0.0000000E+00  0.1111111E-01
    1       -5.440071   1.000000
    2        7.519752   0.000000
    3       11.302168   0.000000
    4       11.302168   0.000000
    5       12.696264   0.000000
    6       15.150211   0.000000
    7       18.963611   0.000000
    8       23.888966   0.000000
 
  0.0000000E+00  0.1785714E+00  0.0000000E+00  0.1111111E-01
    1       -5.241112   1.000000
    2        6.542002   0.000000
    3       11.459102   0.000000
    4       11.459102   0.000000
    5       12.852595   0.000000
    6       15.677854   0.000000
    7       19.824949   0.000000
    8       23.076200   0.000000
 
  0.0000000E+00  0.2142857E+00  0.0000000E+00  0.1111111E-01
    1       -5.000084   1.000000
    2        5.593943   0.022053
    3       11.646773   0.000000
    4       11.646773   0.000000
    5       13.037420   0.000000
    6       16.137363   0.000000
    7       20.754203   0.000000
    8       22.268619   0.000000
 
  0.0000000E+00  0.2500000E+00  0.0000000E+00  0.1111111E-01
    1       -4.718704   1.000000
    2        4.682232   1.000000
    3       11.861840   0.000000
    4       11.861840   0.000000
    5       13.246043   0.000000
    6       16.569118   0.000000
    7       21.487212   0.000000
    8       21.623036   0.000000
 
  0.0000000E+00  0.2857143E+00  0.0000000E+00  0.1111111E-01
    1       -4.399767   1.000000
    2        3.812828   1.000000
    3       12.099339   0.000000
    4       12.099339   0.000000
    5       13.471920   0.000000
    6       16.999587   0.000000
    7       20.747363   0.000000
    8       20.747363   0.000000
 
  0.0000000E+00  0.3214286E+00  0.0000000E+00  0.1111111E-01
    1       -4.047810   1.000000
    2        2.992398   1.000000
    3       12.351854   0.000000
    4       12.351854   0.000000
    5       13.706039   0.000000
    6       17.443709   0.000000
    7       20.062930   0.000000
    8       20.062930   0.000000
 
  0.0000000E+00  0.3571429E+00  0.0000000E+00  0.1111111E-01
    1       -3.670753   1.000000
    2        2.230411   1.000000
    3       12.608247   0.000000
    4       12.608247   0.000000
    5       13.936249   0.000000
    6       17.908812   0.000000
    7       19.449174   0.000000
    8       19.449174   0.000000
 
  0.0000000E+00  0.3928571E+00  0.0000000E+00  0.1111111E-01
    1       -3.283528   1.000000
    2        1.542824   1.000000
    3       12.851991   0.000000
    4       12.851992   0.000000
    5       14.146812   0.000000
    6       18.396734   0.000000
    7       18.925292   0.000000
    8       18.925292   0.000000
 
  0.0000000E+00  0.4285714E+00  0.0000000E+00  0.1111111E-01
    1       -2.915896   1.000000
    2        0.960167   1.000000
    3       13.059828   0.000000
    4       13.059828   0.000000
    5       14.318846   0.000000
    6       18.516298   0.000000
    7       18.516298   0.000000
    8       18.902794   0.000000
 
  0.0000000E+00  0.4642857E+00  0.0000000E+00  0.1111111E-01
    1       -2.627455   1.000000
    2        0.542532   1.000000
    3       13.202905   0.000000
    4       13.202905   0.000000
    5       14.432686   0.000000
    6       18.252119   0.000000
    7       18.252119   0.000000
    8       19.402265   0.000000
 
  0.0000000E+00  0.5000000E+00  0.0000000E+00  0.1111111E-01
    1       -2.512142   1.000000
    2        0.384112   1.000000
    3       13.254411   0.000000
    4       13.254411   0.000000
    5       14.472663   0.000000
    6       18.160182   0.000000
    7       19.710388   0.000000
    8       20.456424   0.000000
 
  0.0000000E+00  0.5000000E+00  0.0000000E+00  0.1111111E-01
    1       -2.512142   1.000000
    2        0.384112   1.000000
    3       13.254411   0.000000
    4       13.254411   0.000000
    5       14.472663   0.000000
    6       18.160182   0.000000
    7       19.710388   0.000000
    8       20.456424   0.000000
 
  0.3571429E-01  0.5000000E+00  0.0000000E+00  0.1111111E-01
    1       -2.489509   1.000000
    2        0.404631   1.000000
    3       12.779578   0.000000
    4       13.271371   0.000000
    5       14.889642   0.000000
    6       17.619974   0.000000
    7       18.178348   0.000000
    8       20.062026   0.000000
 
  0.7142857E-01  0.5000000E+00  0.0000000E+00  0.1111111E-01
    1       -2.421671   1.000000
    2        0.466037   1.000000
    3       11.943805   0.000000
    4       13.322097   0.000000
    5       15.551532   0.000000
    6       16.638527   0.000000
    7       18.232573   0.000000
    8       20.880908   0.000000
 
  0.1071429E+00  0.5000000E+00  0.0000000E+00  0.1111111E-01
    1       -2.308825   1.000000
    2        0.567862   1.000000
    3       11.039842   0.000000
    4       13.406063   0.000000
    5       15.586242   0.000000
    6       16.170169   0.000000
    7       18.322008   0.000000
    8       21.403794   0.000000
 
  0.1428571E+00  0.5000000E+00  0.0000000E+00  0.1111111E-01
    1       -2.151314   1.000000
    2        0.709263   1.000000
    3       10.121544   0.000000
    4       13.522314   0.000000
    5       14.539391   0.000000
    6       16.710076   0.000000
    7       18.445150   0.000000
    8       22.107701   0.000000
 
  0.1785714E+00  0.5000000E+00  0.0000000E+00  0.1111111E-01
    1       -1.949671   1.000000
    2        0.888889   1.000000
    3        9.209101   0.000000
    4       13.522977   0.000000
    5       13.669350   0.000000
    6       17.182596   0.000000
    7       18.599693   0.000000
    8       21.229106   0.000000
 
  0.2142857E+00  0.5000000E+00  0.0000000E+00  0.1111111E-01
    1       -1.704702   1.000000
    2        1.104684   1.000000
    3        8.313851   0.000000
    4       12.549116   0.000000
    5       13.844950   0.000000
    6       17.611113   0.000000
    7       18.782305   0.000000
    8       21.485826   0.000000
 
  0.2500000E+00  0.5000000E+00  0.0000000E+00  0.1111111E-01
    1       -1.417552   1.000000
    2        1.353558   1.000000
    3        7.443600   0.000000
    4       11.626017   0.000000
    5       14.045820   0.000000
    6       18.016805   0.000000
    7       18.988285   0.000000
    8       21.772796   0.000000
 
  0.2857143E+00  0.5000000E+00  0.0000000E+00  0.1111111E-01
    1       -1.089995   1.000000
    2        1.630781   1.000000
    3        6.604552   0.000000
    4       10.761293   0.000000
    5       14.267079   0.000000
    6       18.413607   0.000000
    7       19.211101   0.000000
    8       22.090888   0.000000
 
  0.3214286E+00  0.5000000E+00  0.0000000E+00  0.1111111E-01
    1       -0.724929   1.000000
    2        1.929011   1.000000
    3        5.802711   0.000000
    4        9.964046   0.000000
    5       14.501515   0.000000
    6       18.807433   0.000000
    7       19.441798   0.000000
    8       21.959051   0.000000
 
  0.3571429E+00  0.5000000E+00  0.0000000E+00  0.1111111E-01
    1       -0.327485   1.000000
    2        2.236650   1.000000
    3        5.045461   1.000000
    4        9.247017   0.000000
    5       14.738492   0.000000
    6       19.195883   0.000000
    7       19.668350   0.000000
    8       21.388274   0.000000
 
  0.3928571E+00  0.5000000E+00  0.0000000E+00  0.1111111E-01
    1        0.092101   1.000000
    2        2.535252   1.000000
    3        4.344579   1.000000
    4        8.629378   0.000000
    5       14.962505   0.000000
    6       19.566437   0.000000
    7       19.875267   0.000000
    8       20.901712   0.000000
 
  0.4285714E+00  0.5000000E+00  0.0000000E+00  0.1111111E-01
    1        0.510536   1.000000
    2        2.796405   1.000000
    3        3.724474   1.000000
    4        8.140032   0.000000
    5       15.152238   0.000000
    6       19.892124   0.000000
    7       20.044072   0.000000
    8       20.523019   0.000000
 
  0.4642857E+00  0.5000000E+00  0.0000000E+00  0.1111111E-01
    1        0.867640   1.000000
    2        2.980976   1.000000
    3        3.246105   1.000000
    4        7.818439   0.000000
    5       15.282009   0.000000
    6       20.127031   0.000000
    7       20.155634   0.000000
    8       20.279348   0.000000
 
  0.5000000E+00  0.5000000E+00  0.0000000E+00  0.1111111E-01
    1        1.024679   1.000000
    2        3.048630   1.000000
    3        3.048631   1.000000
    4        7.705103   0.000000
    5       15.328518   0.000000
    6       20.194781   0.000000
    7       20.194781   0.000000
    8       20.214859   0.000000
 
  0.5000000E+00  0.5000000E+00  0.0000000E+00  0.1111111E-01
    1        1.024679   1.000000
    2        3.048630   1.000000
    3        3.048631   1.000000
    4        7.705103   0.000000
    5       15.328518   0.000000
    6       20.194781   0.000000
    7       20.194781   0.000000
    8       20.214859   0.000000
 
  0.4642857E+00  0.4642857E+00  0.0000000E+00  0.1111111E-01
    1        0.718199   1.000000
    2        3.092958   1.000000
    3        3.255841   1.000000
    4        7.932296   0.000000
    5       15.235378   0.000000
    6       20.039180   0.000000
    7       20.237797   0.000000
    8       20.242963   0.000000
 
  0.4285714E+00  0.4285714E+00  0.0000000E+00  0.1111111E-01
    1        0.044765   1.000000
    2        3.225923   1.000000
    3        3.664621   1.000000
    4        8.579908   0.000000
    5       14.974342   0.000000
    6       19.570712   0.000000
    7       20.366601   0.000000
    8       20.383240   0.000000
 
  0.3928571E+00  0.3928571E+00  0.0000000E+00  0.1111111E-01
    1       -0.740317   1.000000
    2        3.447454   1.000000
    3        4.100943   1.000000
    4        9.563538   0.000000
    5       14.589651   0.000000
    6       18.930370   0.000000
    7       20.580424   0.000000
    8       20.606832   0.000000
 
  0.3571429E+00  0.3571429E+00  0.0000000E+00  0.1111111E-01
    1       -1.535472   1.000000
    2        3.757432   1.000000
    3        4.550509   1.000000
    4       10.789438   0.000000
    5       14.131243   0.000000
    6       18.223844   0.000000
    7       20.877878   0.000000
    8       20.906450   0.000000
 
  0.3214286E+00  0.3214286E+00  0.0000000E+00  0.1111111E-01
    1       -2.297198   1.000000
    2        4.155650   1.000000
    3        5.034009   1.000000
    4       12.179055   0.000000
    5       13.642019   0.000000
    6       17.523678   0.000000
    7       21.256763   0.000000
    8       21.277931   0.000000
 
  0.2857143E+00  0.2857143E+00  0.0000000E+00  0.1111111E-01
    1       -3.003431   1.000000
    2        4.641821   1.000000
    3        5.568303   0.049422
    4       13.154304   0.000000
    5       13.650974   0.000000
    6       16.897914   0.000000
    7       21.718805   0.000000
    8       23.534780   0.000000
 
  0.2500000E+00  0.2500000E+00  0.0000000E+00  0.1111111E-01
    1       -3.641588   1.000000
    2        5.215499   0.999579
    3        6.162134   0.000000
    4       12.691130   0.000000
    5       14.945028   0.000000
    6       16.585446   0.000000
    7       21.962246   0.000000
    8       23.032667   0.000000
 
  0.2142857E+00  0.2142857E+00  0.0000000E+00  0.1111111E-01
    1       -4.204029   1.000000
    2        5.875973   0.000000
    3        6.817781   0.000000
    4       12.268515   0.000000
    5       15.132626   0.000000
    6       17.470037   0.000000
    7       20.344314   0.000000
    8       22.284998   0.000000
 
  0.1785714E+00  0.1785714E+00  0.0000000E+00  0.1111111E-01
    1       -4.685713   1.000000
    2        6.622163   0.000000
    3        7.532422   0.000000
    4       11.897604   0.000000
    5       14.714801   0.000000
    6       18.764668   0.000000
    7       18.886210   0.000000
    8       21.531361   0.000000
 
  0.1428571E+00  0.1428571E+00  0.0000000E+00  0.1111111E-01
    1       -5.083321   1.000000
    2        7.452156   0.000000
    3        8.297876   0.000000
    4       11.586101   0.000000
    5       14.234650   0.000000
    6       17.238519   0.000000
    7       19.413605   0.000000
    8       21.733970   0.000000
 
  0.1071429E+00  0.1071429E+00  0.0000000E+00  0.1111111E-01
    1       -5.394551   1.000000
    2        8.362035   0.000000
    3        9.098260   0.000000
    4       11.339288   0.000000
    5       13.744445   0.000000
    6       15.779040   0.000000
    7       18.780818   0.000000
    8       23.136717   0.000000
 
  0.7142857E-01  0.7142857E-01  0.0000000E+00  0.1111111E-01
    1       -5.617846   1.000000
    2        9.341708   0.000000
    3        9.902671   0.000000
    4       11.160744   0.000000
    5       13.232959   0.000000
    6       14.402738   0.000000
    7       18.070923   0.000000
    8       24.603138   0.000000
 
  0.3571429E-01  0.3571429E-01  0.0000000E+00  0.1111111E-01
    1       -5.752211   1.000000
    2       10.349917   0.000000
    3       10.635591   0.000000
    4       11.052773   0.000000
    5       12.711966   0.000000
    6       13.155013   0.000000
    7       17.578312   0.000000
    8       25.681881   0.000000
 
  0.0000000E+00  0.0000000E+00  0.0000000E+00  0.1111111E-01
    1       -5.797046   1.000000
    2       11.016650   0.000000
    3       11.016651   0.000000
    4       11.016651   0.000000
    5       12.408185   0.000000
    6       12.408185   0.000000
    7       17.403991   0.000000
    8       26.077118   0.000000
 
  0.0000000E+00  0.0000000E+00  0.0000000E+00  0.1111111E-01
    1       -5.797046   1.000000
    2       11.016650   0.000000
    3       11.016651   0.000000
    4       11.016651   0.000000
    5       12.408185   0.000000
    6       12.408185   0.000000
    7       17.403991   0.000000
    8       26.077118   0.000000
 
  0.3571429E-01  0.3571429E-01  0.3571429E-01  0.1111111E-01
    1       -5.729787   1.000000
    2       10.368237   0.000000
    3       10.368237   0.000000
    4       10.847511   0.000000
    5       13.173089   0.000000
    6       13.173089   0.000000
    7       17.659262   0.000000
    8       25.699021   0.000000
 
  0.7142857E-01  0.7142857E-01  0.7142857E-01  0.1111111E-01
    1       -5.528276   1.000000
    2        9.415682   0.000000
    3        9.415683   0.000000
    4       10.416568   0.000000
    5       14.473493   0.000000
    6       14.473493   0.000000
    7       18.322225   0.000000
    8       24.750553   0.000000
 
  0.1071429E+00  0.1071429E+00  0.1071429E+00  0.1111111E-01
    1       -5.193417   1.000000
    2        8.529299   0.000000
    3        8.529299   0.000000
    4        9.864772   0.000000
    5       15.934032   0.000000
    6       15.934032   0.000000
    7       19.121648   0.000000
    8       23.083494   0.000000
 
  0.1428571E+00  0.1428571E+00  0.1428571E+00  0.1111111E-01
    1       -4.726837   1.000000
    2        7.749968   0.000000
    3        7.749968   0.000000
    4        9.297759   0.000000
    5       17.503786   0.000000
    6       17.503786   0.000000
    7       19.491269   0.000000
    8       21.384722   0.000000
 
  0.1785714E+00  0.1785714E+00  0.1785714E+00  0.1111111E-01
    1       -4.130957   1.000000
    2        7.086657   0.000000
    3        7.086657   0.000000
    4        8.775611   0.000000
    5       18.854553   0.000000
    6       19.121495   0.000000
    7       19.121496   0.000000
    8       19.721679   0.000000
 
  0.2142857E+00  0.2142857E+00  0.2142857E+00  0.1111111E-01
    1       -3.409263   1.000000
    2        6.541287   0.000000
    3        6.541287   0.000000
    4        8.329778   0.000000
    5       17.659384   0.000000
    6       18.022010   0.000000
    7       18.022010   0.000000
    8       20.913868   0.000000
 
  0.2500000E+00  0.2500000E+00  0.2500000E+00  0.1111111E-01
    1       -2.566747   1.000000
    2        6.112564   0.000000
    3        6.112564   0.000000
    4        7.974796   0.000000
    5       16.334904   0.000000
    6       16.497325   0.000000
    7       16.497325   0.000000
    8       22.681190   0.000000
 
  0.2857143E+00  0.2857143E+00  0.2857143E+00  0.1111111E-01
    1       -1.610504   1.000000
    2        5.796603   0.000001
    3        5.796603   0.000001
    4        7.712958   0.000000
    5       15.023865   0.000000
    6       15.099496   0.000000
    7       15.099496   0.000000
    8       24.460247   0.000000
 
  0.3214286E+00  0.3214286E+00  0.3214286E+00  0.1111111E-01
    1       -0.550767   1.000000
    2        5.586393   0.028305
    3        5.586393   0.028305
    4        7.533034   0.000000
    5       13.785405   0.000000
    6       13.848944   0.000000
    7       13.848944   0.000000
    8       22.066343   0.000000
 
  0.3571429E+00  0.3571429E+00  0.3571429E+00  0.1111111E-01
    1        0.597309   1.000000
    2        5.470556   0.394300
    3        5.470556   0.394299
    4        7.401843   0.000000
    5       12.663538   0.000000
    6       12.763831   0.000000
    7       12.763831   0.000000
    8       19.939424   0.000000
 
  0.3928571E+00  0.3928571E+00  0.3928571E+00  0.1111111E-01
    1        1.810851   1.000000
    2        5.431363   0.612616
    3        5.431363   0.612615
    4        7.245182   0.000000
    5       11.718095   0.000000
    6       11.865882   0.000000
    7       11.865883   0.000000
    8       18.062566   0.000000
 
  0.4285714E+00  0.4285714E+00  0.4285714E+00  0.1111111E-01
    1        3.054978   1.000000
    2        5.442872   0.549097
    3        5.442873   0.549095
    4        6.930391   0.000000
    5       11.040206   0.000000
    6       11.183539   0.000000
    7       11.183539   0.000000
    8       16.537849   0.000000
 
  0.4642857E+00  0.4642857E+00  0.4642857E+00  0.1111111E-01
    1        4.276043   1.000000
    2        5.471756   0.387784
    3        5.471756   0.387782
    4        6.321755   0.000000
    5       10.692378   0.000000
    6       10.751629   0.000000
    7       10.751629   0.000000
    8       15.505066   0.000000
 
  0.5000000E+00  0.5000000E+00  0.5000000E+00  0.1111111E-01
    1        5.318098   0.970484
    2        5.486016   0.313211
    3        5.486017   0.313210
    4        5.486017   0.313210
    5       10.602939   0.000000
    6       10.602939   0.000000
    7       10.602939   0.000000
    8       15.131470   0.000000
 
  0.5000000E+00  0.5000000E+00  0.5000000E+00  0.1111111E-01
    1        5.318098   0.970484
    2        5.486016   0.313211
    3        5.486017   0.313210
    4        5.486017   0.313210
    5       10.602939   0.000000
    6       10.602939   0.000000
    7       10.602939   0.000000
    8       15.131470   0.000000
 
  0.4642857E+00  0.5000000E+00  0.4642857E+00  0.1111111E-01
    1        4.514715   1.000000
    2        5.371066   0.872621
    3        5.528958   0.136965
    4        6.206726   0.000000
    5       10.606221   0.000000
    6       10.649858   0.000000
    7       10.807984   0.000000
    8       15.381326   0.000000
 
  0.4285714E+00  0.5000000E+00  0.4285714E+00  0.1111111E-01
    1        3.605040   1.000000
    2        5.049122   1.000000
    3        5.657759   0.001775
    4        6.884252   0.000000
    5       10.645943   0.000000
    6       10.790537   0.000000
    7       11.406512   0.000000
    8       16.077819   0.000000
 
  0.3928571E+00  0.5000000E+00  0.3928571E+00  0.1111111E-01
    1        2.708017   1.000000
    2        4.576908   1.000000
    3        5.872373   0.000000
    4        7.454593   0.000000
    5       10.770489   0.000000
    6       11.024730   0.000000
    7       12.341226   0.000000
    8       17.114834   0.000000
 
  0.3571429E+00  0.5000000E+00  0.3571429E+00  0.1111111E-01
    1        1.852141   1.000000
    2        4.019636   1.000000
    3        6.172676   0.000000
    4        7.968061   0.000000
    5       11.003757   0.000000
    6       11.351990   0.000000
    7       13.529080   0.000000
    8       18.401182   0.000000
 
  0.3214286E+00  0.5000000E+00  0.3214286E+00  0.1111111E-01
    1        1.054445   1.000000
    2        3.432081   1.000000
    3        6.558491   0.000000
    4        8.474421   0.000000
    5       11.348756   0.000000
    6       11.771603   0.000000
    7       14.896437   0.000000
    8       19.874814   0.000000
 
  0.2857143E+00  0.5000000E+00  0.2857143E+00  0.1111111E-01
    1        0.325644   1.000000
    2        2.853500   1.000000
    3        7.029566   0.000000
    4        9.004651   0.000000
    5       11.801094   0.000000
    6       12.282468   0.000000
    7       16.391147   0.000000
    8       21.491223   0.000000
 
  0.2500000E+00  0.5000000E+00  0.2500000E+00  0.1111111E-01
    1       -0.327341   1.000000
    2        2.310035   1.000000
    3        7.585498   0.000000
    4        9.572974   0.000000
    5       12.355515   0.000000
    6       12.882876   0.000000
    7       17.975330   0.000000
    8       23.201270   0.000000
 
  0.2142857E+00  0.5000000E+00  0.2142857E+00  0.1111111E-01
    1       -0.899846   1.000000
    2        1.818714   1.000000
    3        8.225664   0.000000
    4       10.181826   0.000000
    5       13.007534   0.000000
    6       13.570077   0.000000
    7       19.612802   0.000000
    8       22.135312   0.000000
 
  0.1785714E+00  0.5000000E+00  0.1785714E+00  0.1111111E-01
    1       -1.388533   1.000000
    2        1.390676   1.000000
    3        8.949058   0.000000
    4       10.824064   0.000000
    5       13.753296   0.000000
    6       14.339391   0.000000
    7       20.630896   0.000000
    8       21.241330   0.000000
 
  0.1428571E+00  0.5000000E+00  0.1428571E+00  0.1111111E-01
    1       -1.791042   1.000000
    2        1.033245   1.000000
    3        9.753949   0.000000
    4       11.482047   0.000000
    5       14.588812   0.000000
    6       15.182166   0.000000
    7       19.170699   0.000000
    8       22.480469   0.000000
 
  0.1071429E+00  0.5000000E+00  0.1071429E+00  0.1111111E-01
    1       -2.105682   1.000000
    2        0.751260   1.000000
    3       10.637007   0.000000
    4       12.123168   0.000000
    5       15.508327   0.000000
    6       16.080482   0.000000
    7       17.768602   0.000000
    8       22.017856   0.000000
 
  0.7142857E-01  0.5000000E+00  0.7142857E-01  0.1111111E-01
    1       -2.331235   1.000000
    2        0.547894   1.000000
    3       11.589751   0.000000
    4       12.691631   0.000000
    5       16.440405   0.000000
    6       16.499006   0.000000
    7       16.991253   0.000000
    8       21.230296   0.000000
 
  0.3571429E-01  0.5000000E+00  0.3571429E-01  0.1111111E-01
    1       -2.466877   1.000000
    2        0.425146   1.000000
    3       12.577723   0.000000
    4       13.101619   0.000000
    5       15.225353   0.000000
    6       17.511844   0.000000
    7       17.792824   0.000000
    8       20.439281   0.000000
 
  0.0000000E+00  0.5000000E+00  0.0000000E+00  0.1111111E-01
    1       -2.512142   1.000000
    2        0.384112   1.000000
    3       13.254411   0.000000
    4       13.254411   0.000000
    5       14.472663   0.000000
    6       18.160182   0.000000
    7       19.710388   0.000000
    8       20.456424   0.000000
 
  0.5000000E+00  0.5000000E+00  0.0000000E+00  0.1111111E-01
    1        1.024679   1.000000
    2        3.048630   1.000000
    3        3.048631   1.000000
    4        7.705103   0.000000
    5       15.328518   0.000000
    6       20.194781   0.000000
    7       20.194781   0.000000
    8       20.214859   0.000000
 
  0.5000000E+00  0.5000000E+00  0.3571429E-01  0.1111111E-01
    1        1.047637   1.000000
    2        3.068103   1.000000
    3        3.068103   1.000000
    4        7.726928   0.000000
    5       15.112648   0.000000
    6       19.833109   0.000000
    7       19.833109   0.000000
    8       20.453717   0.000000
 
  0.5000000E+00  0.5000000E+00  0.7142857E-01  0.1111111E-01
    1        1.116478   1.000000
    2        3.126350   1.000000
    3        3.126350   1.000000
    4        7.792263   0.000000
    5       14.560153   0.000000
    6       19.021898   0.000000
    7       19.021898   0.000000
    8       21.074885   0.000000
 
  0.5000000E+00  0.5000000E+00  0.1071429E+00  0.1111111E-01
    1        1.231080   1.000000
    2        3.222833   1.000000
    3        3.222833   1.000000
    4        7.900668   0.000000
    5       13.827334   0.000000
    6       18.064978   0.000000
    7       18.064978   0.000000
    8       21.921065   0.000000
 
  0.5000000E+00  0.5000000E+00  0.1428571E+00  0.1111111E-01
    1        1.391246   1.000000
    2        3.356574   1.000000
    3        3.356575   1.000000
    4        8.051345   0.000000
    5       13.014390   0.000000
    6       17.080281   0.000000
    7       17.080281   0.000000
    8       22.890185   0.000000
 
  0.5000000E+00  0.5000000E+00  0.1785714E+00  0.1111111E-01
    1        1.596703   1.000000
    2        3.526041   1.000000
    3        3.526042   1.000000
    4        8.243020   0.000000
    5       12.172176   0.000000
    6       16.111429   0.000000
    7       16.111429   0.000000
    8       23.928508   0.000000
 
  0.5000000E+00  0.5000000E+00  0.2142857E+00  0.1111111E-01
    1        1.847097   1.000000
    2        3.728920   1.000000
    3        3.728921   1.000000
    4        8.473748   0.000000
    5       11.326543   0.000000
    6       15.178341   0.000000
    7       15.178341   0.000000
    8       20.323388   0.000000
 
  0.5000000E+00  0.5000000E+00  0.2500000E+00  0.1111111E-01
    1        2.141993   1.000000
    2        3.961756   1.000000
    3        3.961756   1.000000
    4        8.740560   0.000000
    5       10.491594   0.000000
    6       14.292969   0.000000
    7       14.292969   0.000000
    8       19.340449   0.000000
 
  0.5000000E+00  0.5000000E+00  0.2857143E+00  0.1111111E-01
    1        2.480878   1.000000
    2        4.219395   1.000000
    3        4.219395   1.000000
    4        9.038882   0.000000
    5        9.675847   0.000000
    6       13.465081   0.000000
    7       13.465081   0.000000
    8       18.420564   0.000000
 
  0.5000000E+00  0.5000000E+00  0.3214286E+00  0.1111111E-01
    1        2.863149   1.000000
    2        4.494059   1.000000
    3        4.494059   1.000000
    4        8.884790   0.000000
    5        9.361494   0.000000
    6       12.705155   0.000000
    7       12.705155   0.000000
    8       17.571413   0.000000
 
  0.5000000E+00  0.5000000E+00  0.3571429E+00  0.1111111E-01
    1        3.288107   1.000000
    2        4.773915   1.000000
    3        4.773915   1.000000
    4        8.122225   0.000000
    5        9.696727   0.000000
    6       12.026678   0.000000
    7       12.026678   0.000000
    8       16.804998   0.000000
 
  0.5000000E+00  0.5000000E+00  0.3928571E+00  0.1111111E-01
    1        3.754884   1.000000
    2        5.041152   1.000000
    3        5.041152   1.000000
    4        7.391100   0.000000
    5       10.025428   0.000000
    6       11.448526   0.000000
    7       11.448527   0.000000
    8       16.140713   0.000000
 
  0.5000000E+00  0.5000000E+00  0.4285714E+00  0.1111111E-01
    1        4.262384   1.000000
    2        5.270221   0.994842
    3        5.270221   0.994842
    4        6.693933   0.000000
    5       10.316715   0.000000
    6       10.996961   0.000000
    7       10.996962   0.000000
    8       15.609612   0.000000
 
  0.5000000E+00  0.5000000E+00  0.4642857E+00  0.1111111E-01
    1        4.808267   1.000000
    2        5.428752   0.626680
    3        5.428752   0.626678
    4        6.033947   0.000000
    5       10.525583   0.000000
    6       10.704781   0.000000
    7       10.704782   0.000000
    8       15.256811   0.000000
 
  0.5000000E+00  0.5000000E+00  0.5000000E+00  0.1111111E-01
    1        5.318098   0.970484
    2        5.486016   0.313211
    3        5.486017   0.313210
    4        5.486017   0.313210
    5       10.602939   0.000000
    6       10.602939   0.000000
    7       10.602939   0.000000
    8       15.131470   0.000000
