<?xml version="1.0" encoding="ISO-8859-1"?>
<modeling>
 <generator>
  <i name="program" type="string">vasp </i>
  <i name="version" type="string">5.4.4.18Apr17-6-g9f103f2a35  </i>
  <i name="subversion" type="string">(build May 22 2019 20:40:36) complex            parallel </i>
  <i name="platform" type="string">NGM1Y2Zi </i>
  <i name="date" type="string">2019 06 19 </i>
  <i name="time" type="string">22:37:18 </i>
 </generator>
 <incar>
  <i type="string" name="SYSTEM"> Diamond si</i>
  <i type="int" name="ISTART">     0</i>
  <i type="string" name="PREC">normal</i>
  <i type="int" name="ICHARG">     2</i>
  <i type="int" name="IBRION">     2</i>
  <i name="EDIFF">      0.00001000</i>
  <i name="EDIFFG">      0.02000000</i>
  <i type="int" name="NSW">    20</i>
  <i type="int" name="ISIF">     3</i>
  <i name="ENCUT">    300.00000000</i>
  <i type="int" name="ISMEAR">     0</i>
  <i name="SIGMA">      0.10000000</i>
  <v type="int" name="KPOINT_BSE">    -1     0     0     0</v>
 </incar>
 <structure name="primitive_cell" >
  <crystal>
   <varray name="basis" >
    <v>       0.00000000       0.00000000      -4.70000000 </v>
    <v>       0.00000000      -4.70000000       0.00000000 </v>
    <v>      -4.70000000       0.00000000       0.00000000 </v>
   </varray>
   <i name="volume">    103.82300000 </i>
   <varray name="rec_basis" >
    <v>       0.00000000       0.00000000      -0.21276596 </v>
    <v>       0.00000000      -0.21276596       0.00000000 </v>
    <v>      -0.21276596       0.00000000       0.00000000 </v>
   </varray>
  </crystal>
  <varray name="positions" >
   <v>      -0.31587600       0.40226300      -0.37640300 </v>
  </varray>
 </structure>
 <varray name="primitive_index" >
  <v type="int" >        1 </v>
 </varray>
 <kpoints>
  <generation param="listgenerated">
   <i name="divisions" type="int">      15 </i>
   <v>       0.00000000       0.00000000       0.00000000 </v>
   <v>       0.00000000       0.50000000       0.00000000 </v>
   <v>       0.50000000       0.50000000       0.00000000 </v>
   <v>       0.00000000       0.00000000       0.00000000 </v>
   <v>       0.50000000       0.50000000       0.50000000 </v>
   <v>       0.50000000       0.50000000       0.00000000 </v>
   <v>       0.50000000       0.50000000       0.50000000 </v>
  </generation>
  <varray name="kpointlist" >
   <v>       0.00000000       0.00000000       0.00000000 </v>
   <v>       0.00000000       0.03571429       0.00000000 </v>
   <v>       0.00000000       0.07142857       0.00000000 </v>
   <v>       0.00000000       0.10714286       0.00000000 </v>
   <v>       0.00000000       0.14285714       0.00000000 </v>
   <v>       0.00000000       0.17857143       0.00000000 </v>
   <v>       0.00000000       0.21428571       0.00000000 </v>
   <v>       0.00000000       0.25000000       0.00000000 </v>
   <v>       0.00000000       0.28571429       0.00000000 </v>
   <v>       0.00000000       0.32142857       0.00000000 </v>
   <v>       0.00000000       0.35714286       0.00000000 </v>
   <v>       0.00000000       0.39285714       0.00000000 </v>
   <v>       0.00000000       0.42857143       0.00000000 </v>
   <v>       0.00000000       0.46428571       0.00000000 </v>
   <v>       0.00000000       0.50000000       0.00000000 </v>
   <v>       0.00000000       0.50000000       0.00000000 </v>
   <v>       0.03571429       0.50000000       0.00000000 </v>
   <v>       0.07142857       0.50000000       0.00000000 </v>
   <v>       0.10714286       0.50000000       0.00000000 </v>
   <v>       0.14285714       0.50000000       0.00000000 </v>
   <v>       0.17857143       0.50000000       0.00000000 </v>
   <v>       0.21428571       0.50000000       0.00000000 </v>
   <v>       0.25000000       0.50000000       0.00000000 </v>
   <v>       0.28571429       0.50000000       0.00000000 </v>
   <v>       0.32142857       0.50000000       0.00000000 </v>
   <v>       0.35714286       0.50000000       0.00000000 </v>
   <v>       0.39285714       0.50000000       0.00000000 </v>
   <v>       0.42857143       0.50000000       0.00000000 </v>
   <v>       0.46428571       0.50000000       0.00000000 </v>
   <v>       0.50000000       0.50000000       0.00000000 </v>
   <v>       0.50000000       0.50000000       0.00000000 </v>
   <v>       0.46428571       0.46428571       0.00000000 </v>
   <v>       0.42857143       0.42857143       0.00000000 </v>
   <v>       0.39285714       0.39285714       0.00000000 </v>
   <v>       0.35714286       0.35714286       0.00000000 </v>
   <v>       0.32142857       0.32142857       0.00000000 </v>
   <v>       0.28571429       0.28571429       0.00000000 </v>
   <v>       0.25000000       0.25000000       0.00000000 </v>
   <v>       0.21428571       0.21428571       0.00000000 </v>
   <v>       0.17857143       0.17857143       0.00000000 </v>
   <v>       0.14285714       0.14285714       0.00000000 </v>
   <v>       0.10714286       0.10714286       0.00000000 </v>
   <v>       0.07142857       0.07142857       0.00000000 </v>
   <v>       0.03571429       0.03571429       0.00000000 </v>
   <v>       0.00000000       0.00000000       0.00000000 </v>
   <v>       0.00000000       0.00000000       0.00000000 </v>
   <v>       0.03571429       0.03571429       0.03571429 </v>
   <v>       0.07142857       0.07142857       0.07142857 </v>
   <v>       0.10714286       0.10714286       0.10714286 </v>
   <v>       0.14285714       0.14285714       0.14285714 </v>
   <v>       0.17857143       0.17857143       0.17857143 </v>
   <v>       0.21428571       0.21428571       0.21428571 </v>
   <v>       0.25000000       0.25000000       0.25000000 </v>
   <v>       0.28571429       0.28571429       0.28571429 </v>
   <v>       0.32142857       0.32142857       0.32142857 </v>
   <v>       0.35714286       0.35714286       0.35714286 </v>
   <v>       0.39285714       0.39285714       0.39285714 </v>
   <v>       0.42857143       0.42857143       0.42857143 </v>
   <v>       0.46428571       0.46428571       0.46428571 </v>
   <v>       0.50000000       0.50000000       0.50000000 </v>
   <v>       0.50000000       0.50000000       0.50000000 </v>
   <v>       0.46428571       0.50000000       0.46428571 </v>
   <v>       0.42857143       0.50000000       0.42857143 </v>
   <v>       0.39285714       0.50000000       0.39285714 </v>
   <v>       0.35714286       0.50000000       0.35714286 </v>
   <v>       0.32142857       0.50000000       0.32142857 </v>
   <v>       0.28571429       0.50000000       0.28571429 </v>
   <v>       0.25000000       0.50000000       0.25000000 </v>
   <v>       0.21428571       0.50000000       0.21428571 </v>
   <v>       0.17857143       0.50000000       0.17857143 </v>
   <v>       0.14285714       0.50000000       0.14285714 </v>
   <v>       0.10714286       0.50000000       0.10714286 </v>
   <v>       0.07142857       0.50000000       0.07142857 </v>
   <v>       0.03571429       0.50000000       0.03571429 </v>
   <v>       0.00000000       0.50000000       0.00000000 </v>
   <v>       0.50000000       0.50000000       0.00000000 </v>
   <v>       0.50000000       0.50000000       0.03571429 </v>
   <v>       0.50000000       0.50000000       0.07142857 </v>
   <v>       0.50000000       0.50000000       0.10714286 </v>
   <v>       0.50000000       0.50000000       0.14285714 </v>
   <v>       0.50000000       0.50000000       0.17857143 </v>
   <v>       0.50000000       0.50000000       0.21428571 </v>
   <v>       0.50000000       0.50000000       0.25000000 </v>
   <v>       0.50000000       0.50000000       0.28571429 </v>
   <v>       0.50000000       0.50000000       0.32142857 </v>
   <v>       0.50000000       0.50000000       0.35714286 </v>
   <v>       0.50000000       0.50000000       0.39285714 </v>
   <v>       0.50000000       0.50000000       0.42857143 </v>
   <v>       0.50000000       0.50000000       0.46428571 </v>
   <v>       0.50000000       0.50000000       0.50000000 </v>
  </varray>
  <varray name="weights" >
   <v>       0.01111111 </v>
   <v>       0.01111111 </v>
   <v>       0.01111111 </v>
   <v>       0.01111111 </v>
   <v>       0.01111111 </v>
   <v>       0.01111111 </v>
   <v>       0.01111111 </v>
   <v>       0.01111111 </v>
   <v>       0.01111111 </v>
   <v>       0.01111111 </v>
   <v>       0.01111111 </v>
   <v>       0.01111111 </v>
   <v>       0.01111111 </v>
   <v>       0.01111111 </v>
   <v>       0.01111111 </v>
   <v>       0.01111111 </v>
   <v>       0.01111111 </v>
   <v>       0.01111111 </v>
   <v>       0.01111111 </v>
   <v>       0.01111111 </v>
   <v>       0.01111111 </v>
   <v>       0.01111111 </v>
   <v>       0.01111111 </v>
   <v>       0.01111111 </v>
   <v>       0.01111111 </v>
   <v>       0.01111111 </v>
   <v>       0.01111111 </v>
   <v>       0.01111111 </v>
   <v>       0.01111111 </v>
   <v>       0.01111111 </v>
   <v>       0.01111111 </v>
   <v>       0.01111111 </v>
   <v>       0.01111111 </v>
   <v>       0.01111111 </v>
   <v>       0.01111111 </v>
   <v>       0.01111111 </v>
   <v>       0.01111111 </v>
   <v>       0.01111111 </v>
   <v>       0.01111111 </v>
   <v>       0.01111111 </v>
   <v>       0.01111111 </v>
   <v>       0.01111111 </v>
   <v>       0.01111111 </v>
   <v>       0.01111111 </v>
   <v>       0.01111111 </v>
   <v>       0.01111111 </v>
   <v>       0.01111111 </v>
   <v>       0.01111111 </v>
   <v>       0.01111111 </v>
   <v>       0.01111111 </v>
   <v>       0.01111111 </v>
   <v>       0.01111111 </v>
   <v>       0.01111111 </v>
   <v>       0.01111111 </v>
   <v>       0.01111111 </v>
   <v>       0.01111111 </v>
   <v>       0.01111111 </v>
   <v>       0.01111111 </v>
   <v>       0.01111111 </v>
   <v>       0.01111111 </v>
   <v>       0.01111111 </v>
   <v>       0.01111111 </v>
   <v>       0.01111111 </v>
   <v>       0.01111111 </v>
   <v>       0.01111111 </v>
   <v>       0.01111111 </v>
   <v>       0.01111111 </v>
   <v>       0.01111111 </v>
   <v>       0.01111111 </v>
   <v>       0.01111111 </v>
   <v>       0.01111111 </v>
   <v>       0.01111111 </v>
   <v>       0.01111111 </v>
   <v>       0.01111111 </v>
   <v>       0.01111111 </v>
   <v>       0.01111111 </v>
   <v>       0.01111111 </v>
   <v>       0.01111111 </v>
   <v>       0.01111111 </v>
   <v>       0.01111111 </v>
   <v>       0.01111111 </v>
   <v>       0.01111111 </v>
   <v>       0.01111111 </v>
   <v>       0.01111111 </v>
   <v>       0.01111111 </v>
   <v>       0.01111111 </v>
   <v>       0.01111111 </v>
   <v>       0.01111111 </v>
   <v>       0.01111111 </v>
   <v>       0.01111111 </v>
  </varray>
 </kpoints>
 <parameters>
  <separator name="general" >
   <i type="string" name="SYSTEM">Diamond si</i>
   <i type="logical" name="LCOMPAT"> F  </i>
  </separator>
  <separator name="electronic" >
   <i type="string" name="PREC">normal</i>
   <i name="ENMAX">    300.00000000</i>
   <i name="ENAUG">    322.06900000</i>
   <i name="EDIFF">      0.00001000</i>
   <i type="int" name="IALGO">    38</i>
   <i type="int" name="IWAVPR">    11</i>
   <i type="int" name="NBANDS">     8</i>
   <i name="NELECT">      4.00000000</i>
   <i type="int" name="TURBO">     0</i>
   <i type="int" name="IRESTART">     0</i>
   <i type="int" name="NREBOOT">     0</i>
   <i type="int" name="NMIN">     0</i>
   <i name="EREF">      0.00000000</i>
   <separator name="electronic smearing" >
    <i type="int" name="ISMEAR">     0</i>
    <i name="SIGMA">      0.10000000</i>
    <i name="KSPACING">      0.50000000</i>
    <i type="logical" name="KGAMMA"> T  </i>
   </separator>
   <separator name="electronic projectors" >
    <i type="logical" name="LREAL"> F  </i>
    <v name="ROPT">      0.00000000</v>
    <i type="int" name="LMAXPAW">  -100</i>
    <i type="int" name="LMAXMIX">     2</i>
    <i type="logical" name="NLSPLINE"> F  </i>
   </separator>
   <separator name="electronic startup" >
    <i type="int" name="ISTART">     0</i>
    <i type="int" name="ICHARG">     2</i>
    <i type="int" name="INIWAV">     1</i>
   </separator>
   <separator name="electronic spin" >
    <i type="int" name="ISPIN">     1</i>
    <i type="logical" name="LNONCOLLINEAR"> F  </i>
    <v name="MAGMOM">      1.00000000</v>
    <i name="NUPDOWN">     -1.00000000</i>
    <i type="logical" name="LSORBIT"> F  </i>
    <v name="SAXIS">      0.00000000      0.00000000      1.00000000</v>
    <i type="logical" name="LSPIRAL"> F  </i>
    <v name="QSPIRAL">      0.00000000      0.00000000      0.00000000</v>
    <i type="logical" name="LZEROZ"> F  </i>
   </separator>
   <separator name="electronic exchange-correlation" >
    <i type="logical" name="LASPH"> F  </i>
    <i type="logical" name="LMETAGGA"> F  </i>
   </separator>
   <separator name="electronic convergence" >
    <i type="int" name="NELM">    60</i>
    <i type="int" name="NELMDL">    -5</i>
    <i type="int" name="NELMIN">     2</i>
    <i name="ENINI">    300.00000000</i>
    <separator name="electronic convergence detail" >
     <i type="logical" name="LDIAG"> T  </i>
     <i type="logical" name="LSUBROT"> F  </i>
     <i name="WEIMIN">      0.00100000</i>
     <i name="EBREAK">      0.00000031</i>
     <i name="DEPER">      0.30000000</i>
     <i type="int" name="NRMM">     4</i>
     <i name="TIME">      0.40000000</i>
    </separator>
   </separator>
   <separator name="electronic mixer" >
    <i name="AMIX">      0.40000000</i>
    <i name="BMIX">      1.00000000</i>
    <i name="AMIN">      0.10000000</i>
    <i name="AMIX_MAG">      1.60000000</i>
    <i name="BMIX_MAG">      1.00000000</i>
    <separator name="electronic mixer details" >
     <i type="int" name="IMIX">     4</i>
     <i type="logical" name="MIXFIRST"> F  </i>
     <i type="int" name="MAXMIX">   -45</i>
     <i name="WC">    100.00000000</i>
     <i type="int" name="INIMIX">     1</i>
     <i type="int" name="MIXPRE">     1</i>
     <i type="int" name="MREMOVE">     5</i>
    </separator>
   </separator>
   <separator name="electronic dipolcorrection" >
    <i type="logical" name="LDIPOL"> F  </i>
    <i type="logical" name="LMONO"> F  </i>
    <i type="int" name="IDIPOL">     0</i>
    <i name="EPSILON">      1.00000000</i>
    <v name="DIPOL">   -100.00000000   -100.00000000   -100.00000000</v>
    <i name="EFIELD">      0.00000000</i>
   </separator>
  </separator>
  <separator name="grids" >
   <i type="int" name="NGX">    20</i>
   <i type="int" name="NGY">    20</i>
   <i type="int" name="NGZ">    20</i>
   <i type="int" name="NGXF">    40</i>
   <i type="int" name="NGYF">    40</i>
   <i type="int" name="NGZF">    40</i>
   <i type="logical" name="ADDGRID"> F  </i>
  </separator>
  <separator name="ionic" >
   <i type="int" name="NSW">    20</i>
   <i type="int" name="IBRION">     2</i>
   <i type="int" name="MDALGO">     0</i>
   <i type="int" name="ISIF">     3</i>
   <i name="PSTRESS">      0.00000000</i>
   <i name="EDIFFG">      0.02000000</i>
   <i type="int" name="NFREE">     1</i>
   <i name="POTIM">      0.50000000</i>
   <i name="SMASS">     -3.00000000</i>
   <i name="SCALEE">      1.00000000</i>
  </separator>
  <separator name="ionic md" >
   <i name="TEBEG">      0.00010000</i>
   <i name="TEEND">      0.00010000</i>
   <i type="int" name="NBLOCK">     1</i>
   <i type="int" name="KBLOCK">    20</i>
   <i type="int" name="NPACO">   256</i>
   <i name="APACO">     16.00000000</i>
  </separator>
  <separator name="symmetry" >
   <i type="int" name="ISYM">     2</i>
   <i name="SYMPREC">      0.00001000</i>
  </separator>
  <separator name="dos" >
   <i type="int" name="LORBIT">     0</i>
   <v name="RWIGS">     -1.00000000</v>
   <i type="int" name="NEDOS">   301</i>
   <i name="EMIN">     10.00000000</i>
   <i name="EMAX">    -10.00000000</i>
   <i name="EFERMI">      0.00000000</i>
  </separator>
  <separator name="writing" >
   <i type="int" name="NWRITE">     2</i>
   <i type="logical" name="LWAVE"> T  </i>
   <i type="logical" name="LDOWNSAMPLE"> F  </i>
   <i type="logical" name="LCHARG"> T  </i>
   <i type="logical" name="LPARD"> F  </i>
   <i type="logical" name="LVTOT"> F  </i>
   <i type="logical" name="LVHAR"> F  </i>
   <i type="logical" name="LELF"> F  </i>
   <i type="logical" name="LOPTICS"> F  </i>
   <v name="STM">      0.00000000      0.00000000      0.00000000      0.00000000      0.00000000      0.00000000      0.00000000</v>
  </separator>
  <separator name="performance" >
   <i type="int" name="NPAR">     8</i>
   <i type="int" name="NSIM">     4</i>
   <i type="int" name="NBLK">    -1</i>
   <i type="logical" name="LPLANE"> T  </i>
   <i type="logical" name="LSCALAPACK"> T  </i>
   <i type="logical" name="LSCAAWARE"> F  </i>
   <i type="logical" name="LSCALU"> F  </i>
   <i type="logical" name="LASYNC"> F  </i>
   <i type="logical" name="LORBITALREAL"> F  </i>
  </separator>
  <separator name="miscellaneous" >
   <i type="int" name="IDIOT">     3</i>
   <i type="int" name="ISPECIAL">     0</i>
   <i type="logical" name="LMUSIC"> F  </i>
   <v name="POMASS">     28.08500000</v>
   <v name="DARWINR">      0.00000000</v>
   <v name="DARWINV">      1.00000000</v>
   <i type="logical" name="LCORR"> T  </i>
  </separator>
  <i type="logical" name="GGA_COMPAT"> T  </i>
  <i type="logical" name="LBERRY"> F  </i>
  <i type="int" name="ICORELEVEL">     0</i>
  <i type="logical" name="LDAU"> F  </i>
  <i type="int" name="I_CONSTRAINED_M">     0</i>
  <separator name="electronic exchange-correlation" >
   <i type="string" name="GGA">--</i>
   <i type="int" name="VOSKOWN">     0</i>
   <i type="logical" name="LHFCALC"> F  </i>
   <i type="string" name="PRECFOCK"></i>
   <i type="logical" name="LSYMGRAD"> F  </i>
   <i type="logical" name="LHFONE"> F  </i>
   <i type="logical" name="LRHFCALC"> F  </i>
   <i type="logical" name="LTHOMAS"> F  </i>
   <i type="logical" name="LMODELHF"> F  </i>
   <i name="ENCUT4O">     -1.00000000</i>
   <i type="int" name="EXXOEP">     0</i>
   <i type="int" name="FOURORBIT">     0</i>
   <i name="AEXX">      0.00000000</i>
   <i name="HFALPHA">      0.00000000</i>
   <i name="MCALPHA">      0.00000000</i>
   <i name="ALDAX">      1.00000000</i>
   <i name="AGGAX">      1.00000000</i>
   <i name="ALDAC">      1.00000000</i>
   <i name="AGGAC">      1.00000000</i>
   <i type="int" name="NKREDX">     1</i>
   <i type="int" name="NKREDY">     1</i>
   <i type="int" name="NKREDZ">     1</i>
   <i type="logical" name="SHIFTRED"> F  </i>
   <i type="logical" name="ODDONLY"> F  </i>
   <i type="logical" name="EVENONLY"> F  </i>
   <i type="int" name="LMAXFOCK">     0</i>
   <i type="int" name="NMAXFOCKAE">     0</i>
   <i type="logical" name="LFOCKAEDFT"> F  </i>
   <i name="HFSCREEN">      0.00000000</i>
   <i name="HFSCREENC">      0.00000000</i>
   <i type="int" name="NBANDSGWLOW">     0</i>
  </separator>
  <separator name="vdW DFT" >
   <i type="logical" name="LUSE_VDW"> F  </i>
   <i name="Zab_VDW">     -0.84910000</i>
   <i name="PARAM1">      0.12340000</i>
   <i name="PARAM2">      1.00000000</i>
   <i name="PARAM3">      0.00000000</i>
  </separator>
  <separator name="model GW" >
   <i type="int" name="MODEL_GW">     0</i>
   <i name="MODEL_EPS0">     62.29380000</i>
   <i name="MODEL_ALPHA">      1.00000000</i>
  </separator>
  <separator name="linear response parameters" >
   <i type="logical" name="LEPSILON"> F  </i>
   <i type="logical" name="LRPA"> F  </i>
   <i type="logical" name="LNABLA"> F  </i>
   <i type="logical" name="LVEL"> F  </i>
   <i type="int" name="KINTER">     0</i>
   <i name="CSHIFT">      0.10000000</i>
   <i name="OMEGAMAX">     -1.00000000</i>
   <i name="DEG_THRESHOLD">      0.00200000</i>
   <i name="RTIME">     -0.10000000</i>
   <i name="WPLASMAI">      0.00000000</i>
   <v name="DFIELD">      0.00000000      0.00000000      0.00000000</v>
   <v name="WPLASMA">      0.00000000      0.00000000      0.00000000      0.00000000      0.00000000      0.00000000      0.00000000      0.00000000      0.00000000</v>
  </separator>
  <separator name="orbital magnetization" >
   <i type="logical" name="NUCIND"> F  </i>
   <v name="MAGPOS">      0.00000000      0.00000000      0.00000000</v>
   <i type="logical" name="LNICSALL"> T  </i>
   <i type="logical" name="ORBITALMAG"> F  </i>
   <i type="logical" name="LMAGBLOCH"> F  </i>
   <i type="logical" name="LCHIMAG"> F  </i>
   <i type="logical" name="LGAUGE"> T  </i>
   <i type="int" name="MAGATOM">     0</i>
   <v name="MAGDIPOL">      0.00000000      0.00000000      0.00000000</v>
   <v name="AVECCONST">      0.00000000      0.00000000      0.00000000</v>
  </separator>
  <separator name="response functions" >
   <i type="logical" name="LADDER"> F  </i>
   <i type="logical" name="LRPAFORCE"> F  </i>
   <i type="logical" name="LFXC"> F  </i>
   <i type="logical" name="LHARTREE"> T  </i>
   <i type="int" name="IBSE">     0</i>
   <v type="int" name="KPOINT">    -1     0     0     0</v>
   <i type="logical" name="LTCTE"> F  </i>
   <i type="logical" name="LTETE"> F  </i>
   <i type="logical" name="LTRIPLET"> F  </i>
   <i type="logical" name="LFXCEPS"> F  </i>
   <i type="logical" name="LFXHEG"> F  </i>
   <i type="int" name="NATURALO">     2</i>
   <i type="logical" name="L2ORDER"> F  </i>
   <i type="logical" name="LMP2LT"> F  </i>
   <i type="logical" name="LUSEW"> F  </i>
   <i name="ENCUTGW">     -2.00000000</i>
   <i name="ENCUTGWSOFT">     -2.00000000</i>
   <i name="ENCUTLF">     -1.00000000</i>
   <i type="int" name="LMAXMP2">    -1</i>
   <i name="SCISSOR">      0.00000000</i>
   <i type="int" name="NOMEGA">     0</i>
   <i type="int" name="NOMEGAR">     0</i>
   <i type="int" name="NBANDSGW">    -1</i>
   <i type="int" name="NBANDSO">    -1</i>
   <i type="int" name="NBANDSV">    -1</i>
   <i type="int" name="NELM">     1</i>
   <i type="int" name="NELMHF">     1</i>
   <i type="int" name="DIM">     3</i>
   <i type="int" name="ANTIRES">     0</i>
   <i name="OMEGAMAX">    -30.00000000</i>
   <i name="OMEGAMIN">    -30.00000000</i>
   <i name="OMEGATL">   -200.00000000</i>
   <i type="int" name="OMEGAGRID">   140</i>
   <i name="CSHIFT">     -0.10000000</i>
   <i type="logical" name="SELFENERGY"> F  </i>
   <i type="logical" name="LSPECTRAL"> F  </i>
   <i type="logical" name="LSPECTRALGW"> F  </i>
   <i type="logical" name="LSINGLES"> F  </i>
   <i type="logical" name="LFERMIGW"> F  </i>
   <i type="logical" name="ODDONLYGW"> F  </i>
   <i type="logical" name="EVENONLYGW"> F  </i>
   <i type="int" name="NKREDLFX">     1</i>
   <i type="int" name="NKREDLFY">     1</i>
   <i type="int" name="NKREDLFZ">     1</i>
   <i type="int" name="MAXMEM">  2800</i>
   <i type="int" name="TELESCOPE">     0</i>
   <i type="int" name="TAUPAR">     1</i>
   <i type="int" name="OMEGAPAR">    -1</i>
   <i name="LAMBDA">      1.00000000</i>
  </separator>
  <separator name="External order field" >
   <i name="OFIELD_KAPPA">      0.00000000</i>
   <v name="OFIELD_K">      0.00000000      0.00000000      0.00000000</v>
   <i name="OFIELD_Q6_NEAR">      0.00000000</i>
   <i name="OFIELD_Q6_FAR">      0.00000000</i>
   <i name="OFIELD_A">      0.00000000</i>
  </separator>
 </parameters>
 <atominfo>
  <atoms>       1 </atoms>
  <types>       1 </types>
  <array name="atoms" >
   <dimension dim="1">ion</dimension>
   <field type="string">element</field>
   <field type="int">atomtype</field>
   <set>
    <rc><c>Si</c><c>   1</c></rc>
   </set>
  </array>
  <array name="atomtypes" >
   <dimension dim="1">type</dimension>
   <field type="int">atomspertype</field>
   <field type="string">element</field>
   <field>mass</field>
   <field>valence</field>
   <field type="string">pseudopotential</field>
   <set>
    <rc><c>   1</c><c>Si</c><c>     28.08500000</c><c>      4.00000000</c><c>  PAW_PBE Si 05Jan2001                  </c></rc>
   </set>
  </array>
 </atominfo>
 <structure name="initialpos" >
  <crystal>
   <varray name="basis" >
    <v>       0.00000000       0.00000000      -4.70000000 </v>
    <v>       0.00000000      -4.70000000       0.00000000 </v>
    <v>      -4.70000000       0.00000000       0.00000000 </v>
   </varray>
   <i name="volume">    103.82300000 </i>
   <varray name="rec_basis" >
    <v>       0.00000000       0.00000000      -0.21276596 </v>
    <v>       0.00000000      -0.21276596       0.00000000 </v>
    <v>      -0.21276596       0.00000000       0.00000000 </v>
   </varray>
  </crystal>
  <varray name="positions" >
   <v>       0.68412400       0.40226300       0.62359700 </v>
  </varray>
 </structure>
 <calculation>
  <scstep>
   <time name="dav">    1.23    0.61</time>
   <time name="total">    1.26    0.63</time>
   <energy>
    <i name="alphaZ">      0.32423577 </i>
    <i name="ewald">    -69.54294470 </i>
    <i name="hartreedc">    -19.88573181 </i>
    <i name="XCdc">    -11.04050579 </i>
    <i name="pawpsdc">     88.12379961 </i>
    <i name="pawaedc">    -70.53051779 </i>
    <i name="eentropy">     -0.00558718 </i>
    <i name="bandstr">    -16.46685331 </i>
    <i name="atom">    103.06484294 </i>
    <i name="e_fr_energy">      4.04073775 </i>
    <i name="e_wo_entrp">      4.04632493 </i>
    <i name="e_0_energy">      4.04353134 </i>
   </energy>
  </scstep>
  <scstep>
   <time name="dav">    1.10    0.55</time>
   <time name="total">    1.11    0.55</time>
   <energy>
    <i name="e_fr_energy">     -0.93773682 </i>
    <i name="e_wo_entrp">     -0.91383838 </i>
    <i name="e_0_energy">     -0.92578760 </i>
   </energy>
  </scstep>
  <scstep>
   <time name="dav">    1.09    0.54</time>
   <time name="total">    1.09    0.55</time>
   <energy>
    <i name="e_fr_energy">     -1.08232455 </i>
    <i name="e_wo_entrp">     -1.05296968 </i>
    <i name="e_0_energy">     -1.06764712 </i>
   </energy>
  </scstep>
  <scstep>
   <time name="dav">    1.39    0.70</time>
   <time name="total">    1.39    0.70</time>
   <energy>
    <i name="e_fr_energy">     -1.08414611 </i>
    <i name="e_wo_entrp">     -1.05476136 </i>
    <i name="e_0_energy">     -1.06945374 </i>
   </energy>
  </scstep>
  <scstep>
   <time name="dav">    1.11    0.56</time>
   <time name="total">    1.16    0.58</time>
   <energy>
    <i name="e_fr_energy">     -1.08416586 </i>
    <i name="e_wo_entrp">     -1.05478182 </i>
    <i name="e_0_energy">     -1.06947384 </i>
   </energy>
  </scstep>
  <scstep>
   <time name="dav">    1.08    0.54</time>
   <time name="total">    1.14    0.57</time>
   <energy>
    <i name="e_fr_energy">     -1.07826706 </i>
    <i name="e_wo_entrp">     -1.04876886 </i>
    <i name="e_0_energy">     -1.06351796 </i>
   </energy>
  </scstep>
  <scstep>
   <time name="dav">    0.98    0.49</time>
   <time name="total">    1.05    0.52</time>
   <energy>
    <i name="e_fr_energy">     -1.07751825 </i>
    <i name="e_wo_entrp">     -1.04789059 </i>
    <i name="e_0_energy">     -1.06270442 </i>
   </energy>
  </scstep>
  <scstep>
   <time name="dav">    1.15    0.58</time>
   <time name="total">    1.21    0.61</time>
   <energy>
    <i name="e_fr_energy">     -1.07813203 </i>
    <i name="e_wo_entrp">     -1.04855397 </i>
    <i name="e_0_energy">     -1.06334300 </i>
   </energy>
  </scstep>
  <scstep>
   <time name="dav">    1.13    0.57</time>
   <time name="total">    1.19    0.60</time>
   <energy>
    <i name="e_fr_energy">     -1.07815209 </i>
    <i name="e_wo_entrp">     -1.04857575 </i>
    <i name="e_0_energy">     -1.06336392 </i>
   </energy>
  </scstep>
  <scstep>
   <time name="dav">    1.04    0.52</time>
   <time name="total">    1.06    0.53</time>
   <energy>
    <i name="alphaZ">      0.32423577 </i>
    <i name="ewald">    -69.54294470 </i>
    <i name="hartreedc">    -18.66464974 </i>
    <i name="XCdc">    -11.19730240 </i>
    <i name="pawpsdc">     81.32440831 </i>
    <i name="pawaedc">    -63.70257481 </i>
    <i name="eentropy">     -0.02957742 </i>
    <i name="bandstr">    -22.65459846 </i>
    <i name="atom">    103.06484294 </i>
    <i name="e_fr_energy">     -1.07816051 </i>
    <i name="e_wo_entrp">     -1.04858309 </i>
    <i name="e_0_energy">     -1.06337180 </i>
   </energy>
  </scstep>
  <structure>
   <crystal>
    <varray name="basis" >
     <v>       0.00000000       0.00000000      -4.70000000 </v>
     <v>       0.00000000      -4.70000000       0.00000000 </v>
     <v>      -4.70000000       0.00000000       0.00000000 </v>
    </varray>
    <i name="volume">    103.82300000 </i>
    <varray name="rec_basis" >
     <v>       0.00000000       0.00000000      -0.21276596 </v>
     <v>       0.00000000      -0.21276596       0.00000000 </v>
     <v>      -0.21276596       0.00000000       0.00000000 </v>
    </varray>
   </crystal>
   <varray name="positions" >
    <v>       0.68412400       0.40226300       0.62359700 </v>
   </varray>
  </structure>
  <varray name="forces" >
   <v>       0.00000000       0.00000000       0.00000000 </v>
  </varray>
  <varray name="stress" >
   <v>     -23.08869834       0.00000000      -0.00000000 </v>
   <v>       0.00000000     -23.08869834       0.00000000 </v>
   <v>      -0.00000000      -0.00000000     -23.08869834 </v>
  </varray>
  <energy>
   <i name="e_fr_energy">     -1.07816051 </i>
   <i name="e_wo_entrp">     -1.06337180 </i>
   <i name="e_0_energy">     -0.02957742 </i>
  </energy>
  <time name="totalsc">   12.88    6.52</time>
 </calculation>
 <calculation>
  <scstep>
   <time name="dav">    0.84    0.43</time>
   <time name="total">    0.93    0.49</time>
   <energy>
    <i name="alphaZ">      0.40594667 </i>
    <i name="ewald">    -74.95301275 </i>
    <i name="hartreedc">    -20.11772280 </i>
    <i name="XCdc">    -10.82792589 </i>
    <i name="pawpsdc">     81.29794403 </i>
    <i name="pawaedc">    -63.67645546 </i>
    <i name="eentropy">     -0.02356087 </i>
    <i name="bandstr">    -16.97464236 </i>
    <i name="atom">    103.06484294 </i>
    <i name="e_fr_energy">     -1.80458650 </i>
    <i name="e_wo_entrp">     -1.78102563 </i>
    <i name="e_0_energy">     -1.79280607 </i>
   </energy>
  </scstep>
  <scstep>
   <time name="dav">    0.88    0.44</time>
   <time name="total">    0.95    0.48</time>
   <energy>
    <i name="e_fr_energy">     -1.55645744 </i>
    <i name="e_wo_entrp">     -1.53227819 </i>
    <i name="e_0_energy">     -1.54436781 </i>
   </energy>
  </scstep>
  <scstep>
   <time name="dav">    0.73    0.70</time>
   <time name="total">    0.81    0.75</time>
   <energy>
    <i name="e_fr_energy">     -1.44964056 </i>
    <i name="e_wo_entrp">     -1.42477080 </i>
    <i name="e_0_energy">     -1.43720568 </i>
   </energy>
  </scstep>
  <scstep>
   <time name="dav">    0.75    0.47</time>
   <time name="total">    0.81    0.50</time>
   <energy>
    <i name="e_fr_energy">     -1.44973236 </i>
    <i name="e_wo_entrp">     -1.42486367 </i>
    <i name="e_0_energy">     -1.43729802 </i>
   </energy>
  </scstep>
  <scstep>
   <time name="dav">    0.62    0.43</time>
   <time name="total">    0.70    0.50</time>
   <energy>
    <i name="e_fr_energy">     -1.44913374 </i>
    <i name="e_wo_entrp">     -1.42426668 </i>
    <i name="e_0_energy">     -1.43670021 </i>
   </energy>
  </scstep>
  <scstep>
   <time name="dav">    0.55    0.49</time>
   <time name="total">    0.63    0.55</time>
   <energy>
    <i name="e_fr_energy">     -1.44929789 </i>
    <i name="e_wo_entrp">     -1.42443073 </i>
    <i name="e_0_energy">     -1.43686431 </i>
   </energy>
  </scstep>
  <scstep>
   <time name="dav">    1.03    0.82</time>
   <time name="total">    1.10    0.85</time>
   <energy>
    <i name="e_fr_energy">     -1.44933611 </i>
    <i name="e_wo_entrp">     -1.42446651 </i>
    <i name="e_0_energy">     -1.43690131 </i>
   </energy>
  </scstep>
  <scstep>
   <time name="dav">    0.89    0.45</time>
   <time name="total">    0.99    0.50</time>
   <energy>
    <i name="e_fr_energy">     -1.44951104 </i>
    <i name="e_wo_entrp">     -1.42461926 </i>
    <i name="e_0_energy">     -1.43706515 </i>
   </energy>
  </scstep>
  <scstep>
   <time name="dav">    0.93    0.47</time>
   <time name="total">    1.03    0.52</time>
   <energy>
    <i name="e_fr_energy">     -1.44952579 </i>
    <i name="e_wo_entrp">     -1.42463274 </i>
    <i name="e_0_energy">     -1.43707926 </i>
   </energy>
  </scstep>
  <scstep>
   <time name="dav">    0.96    0.48</time>
   <time name="total">    0.99    0.49</time>
   <energy>
    <i name="alphaZ">      0.40594667 </i>
    <i name="ewald">    -74.95301275 </i>
    <i name="hartreedc">    -15.68841437 </i>
    <i name="XCdc">    -11.13524067 </i>
    <i name="pawpsdc">     79.34900784 </i>
    <i name="pawaedc">    -61.72095688 </i>
    <i name="eentropy">     -0.02489568 </i>
    <i name="bandstr">    -20.74680756 </i>
    <i name="atom">    103.06484294 </i>
    <i name="e_fr_energy">     -1.44953046 </i>
    <i name="e_wo_entrp">     -1.42463479 </i>
    <i name="e_0_energy">     -1.43708262 </i>
   </energy>
  </scstep>
  <structure>
   <crystal>
    <varray name="basis" >
     <v>       0.00000000       0.00000000      -4.36075653 </v>
     <v>      -0.00000000      -4.36075653      -0.00000000 </v>
     <v>      -4.36075653       0.00000000       0.00000000 </v>
    </varray>
    <i name="volume">     82.92500771 </i>
    <varray name="rec_basis" >
     <v>      -0.00000000       0.00000000      -0.22931801 </v>
     <v>      -0.00000000      -0.22931801      -0.00000000 </v>
     <v>      -0.22931801       0.00000000      -0.00000000 </v>
    </varray>
   </crystal>
   <varray name="positions" >
    <v>       0.68412400       0.40226300       0.62359700 </v>
   </varray>
  </structure>
  <varray name="forces" >
   <v>       0.00000000       0.00000000      -0.00000000 </v>
  </varray>
  <varray name="stress" >
   <v>     -34.81059804      -0.00000000      -0.00000000 </v>
   <v>       0.00000000     -34.81059804       0.00000000 </v>
   <v>       0.00000000       0.00000000     -34.81059804 </v>
  </varray>
  <energy>
   <i name="e_fr_energy">     -1.44953046 </i>
   <i name="e_wo_entrp">     -1.43708262 </i>
   <i name="e_0_energy">     -0.02489568 </i>
  </energy>
  <time name="totalsc">    9.99    6.17</time>
 </calculation>
 <calculation>
  <scstep>
   <time name="dav">    0.82    0.41</time>
   <time name="total">    0.90    0.45</time>
   <energy>
    <i name="alphaZ">      0.67797540 </i>
    <i name="ewald">    -88.92777181 </i>
    <i name="hartreedc">    -18.61356602 </i>
    <i name="XCdc">    -10.31944209 </i>
    <i name="pawpsdc">     78.87255880 </i>
    <i name="pawaedc">    -61.24496056 </i>
    <i name="eentropy">     -0.01620590 </i>
    <i name="bandstr">     -7.60771653 </i>
    <i name="atom">    103.06484294 </i>
    <i name="e_fr_energy">     -4.11428577 </i>
    <i name="e_wo_entrp">     -4.09807988 </i>
    <i name="e_0_energy">     -4.10618282 </i>
   </energy>
  </scstep>
  <scstep>
   <time name="dav">    0.89    0.45</time>
   <time name="total">    0.97    0.49</time>
   <energy>
    <i name="e_fr_energy">     -3.02129206 </i>
    <i name="e_wo_entrp">     -3.00487625 </i>
    <i name="e_0_energy">     -3.01308416 </i>
   </energy>
  </scstep>
  <scstep>
   <time name="dav">    0.86    0.43</time>
   <time name="total">    0.91    0.46</time>
   <energy>
    <i name="e_fr_energy">     -2.50697155 </i>
    <i name="e_wo_entrp">     -2.48955097 </i>
    <i name="e_0_energy">     -2.49826126 </i>
   </energy>
  </scstep>
  <scstep>
   <time name="dav">    0.89    0.45</time>
   <time name="total">    0.95    0.48</time>
   <energy>
    <i name="e_fr_energy">     -2.50672309 </i>
    <i name="e_wo_entrp">     -2.48932338 </i>
    <i name="e_0_energy">     -2.49802324 </i>
   </energy>
  </scstep>
  <scstep>
   <time name="dav">    0.86    0.43</time>
   <time name="total">    0.92    0.46</time>
   <energy>
    <i name="e_fr_energy">     -2.50604916 </i>
    <i name="e_wo_entrp">     -2.48865466 </i>
    <i name="e_0_energy">     -2.49735191 </i>
   </energy>
  </scstep>
  <scstep>
   <time name="dav">    0.91    0.45</time>
   <time name="total">    0.98    0.49</time>
   <energy>
    <i name="e_fr_energy">     -2.50623316 </i>
    <i name="e_wo_entrp">     -2.48884950 </i>
    <i name="e_0_energy">     -2.49754133 </i>
   </energy>
  </scstep>
  <scstep>
   <time name="dav">    1.16    0.58</time>
   <time name="total">    1.23    0.61</time>
   <energy>
    <i name="e_fr_energy">     -2.50639365 </i>
    <i name="e_wo_entrp">     -2.48902049 </i>
    <i name="e_0_energy">     -2.49770707 </i>
   </energy>
  </scstep>
  <scstep>
   <time name="dav">    0.91    0.45</time>
   <time name="total">    0.95    0.47</time>
   <energy>
    <i name="alphaZ">      0.67797540 </i>
    <i name="ewald">    -88.92777181 </i>
    <i name="hartreedc">     -9.77103749 </i>
    <i name="XCdc">    -10.80994821 </i>
    <i name="pawpsdc">     90.30759560 </i>
    <i name="pawaedc">    -72.67644108 </i>
    <i name="eentropy">     -0.01737161 </i>
    <i name="bandstr">    -14.35423739 </i>
    <i name="atom">    103.06484294 </i>
    <i name="e_fr_energy">     -2.50639366 </i>
    <i name="e_wo_entrp">     -2.48902205 </i>
    <i name="e_0_energy">     -2.49770785 </i>
   </energy>
  </scstep>
  <structure>
   <crystal>
    <varray name="basis" >
     <v>       0.00000000       0.00000000      -3.67547543 </v>
     <v>      -0.00000000      -3.67547543      -0.00000000 </v>
     <v>      -3.67547543       0.00000000       0.00000000 </v>
    </varray>
    <i name="volume">     49.65243719 </i>
    <varray name="rec_basis" >
     <v>      -0.00000000       0.00000000      -0.27207365 </v>
     <v>      -0.00000000      -0.27207365      -0.00000000 </v>
     <v>      -0.27207365       0.00000000      -0.00000000 </v>
    </varray>
   </crystal>
   <varray name="positions" >
    <v>       0.68412400       0.40226300       0.62359700 </v>
   </varray>
  </structure>
  <varray name="forces" >
   <v>       0.00000000       0.00000000      -0.00000000 </v>
  </varray>
  <varray name="stress" >
   <v>     -70.90317014       0.00000000       0.00000000 </v>
   <v>      -0.00000000     -70.90317014       0.00000000 </v>
   <v>       0.00000000       0.00000000     -70.90317014 </v>
  </varray>
  <energy>
   <i name="e_fr_energy">     -2.50639366 </i>
   <i name="e_wo_entrp">     -2.49770785 </i>
   <i name="e_0_energy">     -0.01737161 </i>
  </energy>
  <time name="totalsc">    8.95    4.51</time>
 </calculation>
 <calculation>
  <scstep>
   <time name="dav">    0.83    0.41</time>
   <time name="total">    0.93    0.47</time>
   <energy>
    <i name="alphaZ">      2.74910148 </i>
    <i name="ewald">   -141.80657136 </i>
    <i name="hartreedc">    -15.57939535 </i>
    <i name="XCdc">     -8.63310538 </i>
    <i name="pawpsdc">     88.18111384 </i>
    <i name="pawaedc">    -70.55001465 </i>
    <i name="eentropy">     -0.00430971 </i>
    <i name="bandstr">     32.41938132 </i>
    <i name="atom">    103.06484294 </i>
    <i name="e_fr_energy">    -10.15895687 </i>
    <i name="e_wo_entrp">    -10.15464716 </i>
    <i name="e_0_energy">    -10.15680202 </i>
   </energy>
  </scstep>
  <scstep>
   <time name="dav">    1.09    0.55</time>
   <time name="total">    1.15    0.58</time>
   <energy>
    <i name="e_fr_energy">     -5.40711272 </i>
    <i name="e_wo_entrp">     -5.40316035 </i>
    <i name="e_0_energy">     -5.40513653 </i>
   </energy>
  </scstep>
  <scstep>
   <time name="dav">    0.89    0.45</time>
   <time name="total">    0.96    0.48</time>
   <energy>
    <i name="e_fr_energy">     -2.43745640 </i>
    <i name="e_wo_entrp">     -2.43347638 </i>
    <i name="e_0_energy">     -2.43546639 </i>
   </energy>
  </scstep>
  <scstep>
   <time name="dav">    0.88    0.44</time>
   <time name="total">    0.95    0.47</time>
   <energy>
    <i name="e_fr_energy">     -2.45112039 </i>
    <i name="e_wo_entrp">     -2.44580331 </i>
    <i name="e_0_energy">     -2.44846185 </i>
   </energy>
  </scstep>
  <scstep>
   <time name="dav">    0.99    0.49</time>
   <time name="total">    1.06    0.53</time>
   <energy>
    <i name="e_fr_energy">     -2.41819631 </i>
    <i name="e_wo_entrp">     -2.41420797 </i>
    <i name="e_0_energy">     -2.41620214 </i>
   </energy>
  </scstep>
  <scstep>
   <time name="dav">    1.05    0.52</time>
   <time name="total">    1.13    0.57</time>
   <energy>
    <i name="e_fr_energy">     -2.41816348 </i>
    <i name="e_wo_entrp">     -2.41417995 </i>
    <i name="e_0_energy">     -2.41617171 </i>
   </energy>
  </scstep>
  <scstep>
   <time name="dav">    0.69    0.35</time>
   <time name="total">    0.77    0.38</time>
   <energy>
    <i name="e_fr_energy">     -2.41815309 </i>
    <i name="e_wo_entrp">     -2.41416764 </i>
    <i name="e_0_energy">     -2.41616036 </i>
   </energy>
  </scstep>
  <scstep>
   <time name="dav">    0.60    0.30</time>
   <time name="total">    0.63    0.32</time>
   <energy>
    <i name="alphaZ">      2.74910148 </i>
    <i name="ewald">   -141.80657136 </i>
    <i name="hartreedc">     -1.20251002 </i>
    <i name="XCdc">     -8.09542031 </i>
    <i name="pawpsdc">    650.70242442 </i>
    <i name="pawaedc">   -633.29382615 </i>
    <i name="eentropy">     -0.00398561 </i>
    <i name="bandstr">     25.46779553 </i>
    <i name="atom">    103.06484294 </i>
    <i name="e_fr_energy">     -2.41814908 </i>
    <i name="e_wo_entrp">     -2.41416347 </i>
    <i name="e_0_energy">     -2.41615628 </i>
   </energy>
  </scstep>
  <structure>
   <crystal>
    <varray name="basis" >
     <v>       0.00000000       0.00000000      -2.30491321 </v>
     <v>      -0.00000000      -2.30491321      -0.00000000 </v>
     <v>      -2.30491321       0.00000000       0.00000000 </v>
    </varray>
    <i name="volume">     12.24513938 </i>
    <varray name="rec_basis" >
     <v>      -0.00000000       0.00000000      -0.43385581 </v>
     <v>      -0.00000000      -0.43385581      -0.00000000 </v>
     <v>      -0.43385581       0.00000000      -0.00000000 </v>
    </varray>
   </crystal>
   <varray name="positions" >
    <v>       0.68412400       0.40226300       0.62359700 </v>
   </varray>
  </structure>
  <varray name="forces" >
   <v>       0.00000000       0.00000000      -0.00000000 </v>
  </varray>
  <varray name="stress" >
   <v>     743.78859342       0.00000000      -0.00000000 </v>
   <v>      -0.00000000     743.78859342       0.00000000 </v>
   <v>      -0.00000000      -0.00000000     743.78859342 </v>
  </varray>
  <energy>
   <i name="e_fr_energy">     -2.41814908 </i>
   <i name="e_wo_entrp">     -2.41615628 </i>
   <i name="e_0_energy">     -0.00398561 </i>
  </energy>
  <time name="totalsc">    8.63    4.33</time>
 </calculation>
 <calculation>
  <scstep>
   <time name="dav">    0.68    0.42</time>
   <time name="total">    0.73    0.45</time>
   <energy>
    <i name="alphaZ">      0.94237718 </i>
    <i name="ewald">    -99.24478296 </i>
    <i name="hartreedc">     -0.84168257 </i>
    <i name="XCdc">    -10.83442051 </i>
    <i name="pawpsdc">    651.20908470 </i>
    <i name="pawaedc">   -633.80052154 </i>
    <i name="eentropy">     -0.01503982 </i>
    <i name="bandstr">    -16.44653068 </i>
    <i name="atom">    103.06484294 </i>
    <i name="e_fr_energy">     -5.96667325 </i>
    <i name="e_wo_entrp">     -5.95163343 </i>
    <i name="e_0_energy">     -5.95915334 </i>
   </energy>
  </scstep>
  <scstep>
   <time name="dav">    0.87    0.43</time>
   <time name="total">    0.92    0.46</time>
   <energy>
    <i name="e_fr_energy">     -4.20210363 </i>
    <i name="e_wo_entrp">     -4.18744719 </i>
    <i name="e_0_energy">     -4.19477541 </i>
   </energy>
  </scstep>
  <scstep>
   <time name="dav">    0.85    0.43</time>
   <time name="total">    0.94    0.47</time>
   <energy>
    <i name="e_fr_energy">     -3.18446780 </i>
    <i name="e_wo_entrp">     -3.17059100 </i>
    <i name="e_0_energy">     -3.17752940 </i>
   </energy>
  </scstep>
  <scstep>
   <time name="dav">    0.88    0.44</time>
   <time name="total">    0.94    0.47</time>
   <energy>
    <i name="e_fr_energy">     -3.18641771 </i>
    <i name="e_wo_entrp">     -3.17251632 </i>
    <i name="e_0_energy">     -3.17946702 </i>
   </energy>
  </scstep>
  <scstep>
   <time name="dav">    0.82    0.41</time>
   <time name="total">    0.88    0.44</time>
   <energy>
    <i name="e_fr_energy">     -3.18992053 </i>
    <i name="e_wo_entrp">     -3.17594953 </i>
    <i name="e_0_energy">     -3.18293503 </i>
   </energy>
  </scstep>
  <scstep>
   <time name="dav">    0.78    0.43</time>
   <time name="total">    0.85    0.46</time>
   <energy>
    <i name="e_fr_energy">     -3.19053172 </i>
    <i name="e_wo_entrp">     -3.17653248 </i>
    <i name="e_0_energy">     -3.18353210 </i>
   </energy>
  </scstep>
  <scstep>
   <time name="dav">    0.88    0.44</time>
   <time name="total">    0.96    0.48</time>
   <energy>
    <i name="e_fr_energy">     -3.19056086 </i>
    <i name="e_wo_entrp">     -3.17655041 </i>
    <i name="e_0_energy">     -3.18355564 </i>
   </energy>
  </scstep>
  <scstep>
   <time name="dav">    0.72    0.37</time>
   <time name="total">    0.75    0.39</time>
   <energy>
    <i name="alphaZ">      0.94237718 </i>
    <i name="ewald">    -99.24478296 </i>
    <i name="hartreedc">     -6.78146917 </i>
    <i name="XCdc">    -10.43025785 </i>
    <i name="pawpsdc">    109.16552787 </i>
    <i name="pawaedc">    -91.54777336 </i>
    <i name="eentropy">     -0.01401063 </i>
    <i name="bandstr">     -8.34501396 </i>
    <i name="atom">    103.06484294 </i>
    <i name="e_fr_energy">     -3.19055995 </i>
    <i name="e_wo_entrp">     -3.17654932 </i>
    <i name="e_0_energy">     -3.18355463 </i>
   </energy>
  </scstep>
  <structure>
   <crystal>
    <varray name="basis" >
     <v>       0.00000000       0.00000000      -3.29339065 </v>
     <v>      -0.00000000      -3.29339065      -0.00000000 </v>
     <v>      -3.29339065       0.00000000       0.00000000 </v>
    </varray>
    <i name="volume">     35.72150466 </i>
    <varray name="rec_basis" >
     <v>      -0.00000000       0.00000000      -0.30363844 </v>
     <v>      -0.00000000      -0.30363844      -0.00000000 </v>
     <v>      -0.30363844       0.00000000      -0.00000000 </v>
    </varray>
   </crystal>
   <varray name="positions" >
    <v>       0.68412400       0.40226300       0.62359700 </v>
   </varray>
  </structure>
  <varray name="forces" >
   <v>       0.00000000       0.00000000      -0.00000000 </v>
  </varray>
  <varray name="stress" >
   <v>     -82.61210736      -0.00000000      -0.00000000 </v>
   <v>      -0.00000000     -82.61210736      -0.00000000 </v>
   <v>      -0.00000000       0.00000000     -82.61210736 </v>
  </varray>
  <energy>
   <i name="e_fr_energy">     -3.19055995 </i>
   <i name="e_wo_entrp">     -3.18355463 </i>
   <i name="e_0_energy">     -0.01401063 </i>
  </energy>
  <time name="totalsc">    7.84    4.09</time>
 </calculation>
 <calculation>
  <scstep>
   <time name="dav">    0.75    0.42</time>
   <time name="total">    0.84    0.48</time>
   <energy>
    <i name="alphaZ">      1.53488234 </i>
    <i name="ewald">   -116.76816699 </i>
    <i name="hartreedc">     -7.97942468 </i>
    <i name="XCdc">     -9.51640146 </i>
    <i name="pawpsdc">    109.72233679 </i>
    <i name="pawaedc">    -92.10436280 </i>
    <i name="eentropy">     -0.01244997 </i>
    <i name="bandstr">      7.50078832 </i>
    <i name="atom">    103.06484294 </i>
    <i name="e_fr_energy">     -4.55795550 </i>
    <i name="e_wo_entrp">     -4.54550553 </i>
    <i name="e_0_energy">     -4.55173052 </i>
   </energy>
  </scstep>
  <scstep>
   <time name="dav">    0.86    0.43</time>
   <time name="total">    0.94    0.48</time>
   <energy>
    <i name="e_fr_energy">     -3.98910274 </i>
    <i name="e_wo_entrp">     -3.97587806 </i>
    <i name="e_0_energy">     -3.98249040 </i>
   </energy>
  </scstep>
  <scstep>
   <time name="dav">    0.48    0.48</time>
   <time name="total">    0.55    0.55</time>
   <energy>
    <i name="e_fr_energy">     -3.68615483 </i>
    <i name="e_wo_entrp">     -3.67372753 </i>
    <i name="e_0_energy">     -3.67994118 </i>
   </energy>
  </scstep>
  <scstep>
   <time name="dav">    0.95    0.63</time>
   <time name="total">    1.03    0.68</time>
   <energy>
    <i name="e_fr_energy">     -3.68702888 </i>
    <i name="e_wo_entrp">     -3.67466171 </i>
    <i name="e_0_energy">     -3.68084530 </i>
   </energy>
  </scstep>
  <scstep>
   <time name="dav">    0.73    0.42</time>
   <time name="total">    0.79    0.45</time>
   <energy>
    <i name="e_fr_energy">     -3.68500660 </i>
    <i name="e_wo_entrp">     -3.67241057 </i>
    <i name="e_0_energy">     -3.67870859 </i>
   </energy>
  </scstep>
  <scstep>
   <time name="dav">    0.90    0.45</time>
   <time name="total">    0.97    0.49</time>
   <energy>
    <i name="e_fr_energy">     -3.68498555 </i>
    <i name="e_wo_entrp">     -3.67244893 </i>
    <i name="e_0_energy">     -3.67871724 </i>
   </energy>
  </scstep>
  <scstep>
   <time name="dav">    0.62    0.31</time>
   <time name="total">    0.64    0.32</time>
   <energy>
    <i name="alphaZ">      1.53488234 </i>
    <i name="ewald">   -116.76816699 </i>
    <i name="hartreedc">     -3.56065320 </i>
    <i name="XCdc">     -9.57145073 </i>
    <i name="pawpsdc">    225.28552026 </i>
    <i name="pawaedc">   -207.72646769 </i>
    <i name="eentropy">     -0.01253687 </i>
    <i name="bandstr">      4.06905099 </i>
    <i name="atom">    103.06484294 </i>
    <i name="e_fr_energy">     -3.68497895 </i>
    <i name="e_wo_entrp">     -3.67244208 </i>
    <i name="e_0_energy">     -3.67871052 </i>
   </energy>
  </scstep>
  <structure>
   <crystal>
    <varray name="basis" >
     <v>       0.00000000       0.00000000      -2.79915193 </v>
     <v>      -0.00000000      -2.79915193      -0.00000000 </v>
     <v>      -2.79915193       0.00000000       0.00000000 </v>
    </varray>
    <i name="volume">     21.93205945 </i>
    <varray name="rec_basis" >
     <v>      -0.00000000       0.00000000      -0.35725106 </v>
     <v>      -0.00000000      -0.35725106      -0.00000000 </v>
     <v>      -0.35725106       0.00000000      -0.00000000 </v>
    </varray>
   </crystal>
   <varray name="positions" >
    <v>       0.68412400       0.40226300       0.62359700 </v>
   </varray>
  </structure>
  <varray name="forces" >
   <v>       0.00000000       0.00000000       0.00000000 </v>
  </varray>
  <varray name="stress" >
   <v>       4.53753996       0.00000000      -0.00000000 </v>
   <v>       0.00000000       4.53753996       0.00000000 </v>
   <v>      -0.00000000       0.00000000       4.53753996 </v>
  </varray>
  <energy>
   <i name="e_fr_energy">     -3.68497895 </i>
   <i name="e_wo_entrp">     -3.67871052 </i>
   <i name="e_0_energy">     -0.01253687 </i>
  </energy>
  <time name="totalsc">    6.85    4.28</time>
  <eigenvalues>
   <array>
    <dimension dim="1">band</dimension>
    <dimension dim="2">kpoint</dimension>
    <dimension dim="3">spin</dimension>
    <field>eigene</field>
    <field>occ</field>
    <set>
     <set comment="spin 1">
      <set comment="kpoint 1">
       <r>   -5.7977    1.0000 </r>
       <r>   11.0130    0.0000 </r>
       <r>   11.0130    0.0000 </r>
       <r>   11.0130    0.0000 </r>
       <r>   12.4057    0.0000 </r>
       <r>   12.4057    0.0000 </r>
       <r>   17.3991    0.0000 </r>
       <r>   26.0720    0.0000 </r>
      </set>
      <set comment="kpoint 2">
       <r>   -5.7753    1.0000 </r>
       <r>   10.4595    0.0000 </r>
       <r>   11.0310    0.0000 </r>
       <r>   11.0310    0.0000 </r>
       <r>   12.4241    0.0000 </r>
       <r>   12.9222    0.0000 </r>
       <r>   17.4885    0.0000 </r>
       <r>   25.8777    0.0000 </r>
      </set>
      <set comment="kpoint 3">
       <r>   -5.7081    1.0000 </r>
       <r>    9.5140    0.0000 </r>
       <r>   11.0851    0.0000 </r>
       <r>   11.0851    0.0000 </r>
       <r>   12.4789    0.0000 </r>
       <r>   13.7443    0.0000 </r>
       <r>   17.7675    0.0000 </r>
       <r>   25.3661    0.0000 </r>
      </set>
      <set comment="kpoint 4">
       <r>   -5.5965    1.0000 </r>
       <r>    8.5148    0.0000 </r>
       <r>   11.1745    0.0000 </r>
       <r>   11.1745    0.0000 </r>
       <r>   12.5692    0.0000 </r>
       <r>   14.5075    0.0000 </r>
       <r>   18.2577    0.0000 </r>
       <r>   24.6685    0.0000 </r>
      </set>
      <set comment="kpoint 5">
       <r>   -5.4408    1.0000 </r>
       <r>    7.5172    0.0000 </r>
       <r>   11.2984    0.0000 </r>
       <r>   11.2984    0.0000 </r>
       <r>   12.6937    0.0000 </r>
       <r>   15.1466    0.0000 </r>
       <r>   18.9586    0.0000 </r>
       <r>   23.8841    0.0000 </r>
      </set>
      <set comment="kpoint 6">
       <r>   -5.2419    1.0000 </r>
       <r>    6.5396    0.0000 </r>
       <r>   11.4553    0.0000 </r>
       <r>   11.4553    0.0000 </r>
       <r>   12.8500    0.0000 </r>
       <r>   15.6741    0.0000 </r>
       <r>   19.8199    0.0000 </r>
       <r>   23.0715    0.0000 </r>
      </set>
      <set comment="kpoint 7">
       <r>   -5.0009    1.0000 </r>
       <r>    5.5917    0.0219 </r>
       <r>   11.6429    0.0000 </r>
       <r>   11.6429    0.0000 </r>
       <r>   13.0348    0.0000 </r>
       <r>   16.1334    0.0000 </r>
       <r>   20.7491    0.0000 </r>
       <r>   22.2641    0.0000 </r>
      </set>
      <set comment="kpoint 8">
       <r>   -4.7196    1.0000 </r>
       <r>    4.6802    1.0000 </r>
       <r>   11.8579    0.0000 </r>
       <r>   11.8579    0.0000 </r>
       <r>   13.2434    0.0000 </r>
       <r>   16.5651    0.0000 </r>
       <r>   21.4828    0.0000 </r>
       <r>   21.6178    0.0000 </r>
      </set>
      <set comment="kpoint 9">
       <r>   -4.4008    1.0000 </r>
       <r>    3.8109    1.0000 </r>
       <r>   12.0954    0.0000 </r>
       <r>   12.0954    0.0000 </r>
       <r>   13.4692    0.0000 </r>
       <r>   16.9954    0.0000 </r>
       <r>   20.7431    0.0000 </r>
       <r>   20.7431    0.0000 </r>
      </set>
      <set comment="kpoint 10">
       <r>   -4.0489    1.0000 </r>
       <r>    2.9906    1.0000 </r>
       <r>   12.3478    0.0000 </r>
       <r>   12.3478    0.0000 </r>
       <r>   13.7033    0.0000 </r>
       <r>   17.4394    0.0000 </r>
       <r>   20.0589    0.0000 </r>
       <r>   20.0589    0.0000 </r>
      </set>
      <set comment="kpoint 11">
       <r>   -3.6719    1.0000 </r>
       <r>    2.2288    1.0000 </r>
       <r>   12.6041    0.0000 </r>
       <r>   12.6041    0.0000 </r>
       <r>   13.9335    0.0000 </r>
       <r>   17.9044    0.0000 </r>
       <r>   19.4452    0.0000 </r>
       <r>   19.4452    0.0000 </r>
      </set>
      <set comment="kpoint 12">
       <r>   -3.2848    1.0000 </r>
       <r>    1.5414    1.0000 </r>
       <r>   12.8477    0.0000 </r>
       <r>   12.8477    0.0000 </r>
       <r>   14.1440    0.0000 </r>
       <r>   18.3923    0.0000 </r>
       <r>   18.9215    0.0000 </r>
       <r>   18.9215    0.0000 </r>
      </set>
      <set comment="kpoint 13">
       <r>   -2.9173    1.0000 </r>
       <r>    0.9589    1.0000 </r>
       <r>   13.0555    0.0000 </r>
       <r>   13.0555    0.0000 </r>
       <r>   14.3160    0.0000 </r>
       <r>   18.5127    0.0000 </r>
       <r>   18.5127    0.0000 </r>
       <r>   18.8983    0.0000 </r>
      </set>
      <set comment="kpoint 14">
       <r>   -2.6290    1.0000 </r>
       <r>    0.5415    1.0000 </r>
       <r>   13.1985    0.0000 </r>
       <r>   13.1985    0.0000 </r>
       <r>   14.4298    0.0000 </r>
       <r>   18.2486    0.0000 </r>
       <r>   18.2486    0.0000 </r>
       <r>   19.3978    0.0000 </r>
      </set>
      <set comment="kpoint 15">
       <r>   -2.5138    1.0000 </r>
       <r>    0.3831    1.0000 </r>
       <r>   13.2499    0.0000 </r>
       <r>   13.2499    0.0000 </r>
       <r>   14.4698    0.0000 </r>
       <r>   18.1567    0.0000 </r>
       <r>   19.7061    0.0000 </r>
       <r>   20.4509    0.0000 </r>
      </set>
      <set comment="kpoint 16">
       <r>   -2.5138    1.0000 </r>
       <r>    0.3831    1.0000 </r>
       <r>   13.2499    0.0000 </r>
       <r>   13.2499    0.0000 </r>
       <r>   14.4698    0.0000 </r>
       <r>   18.1567    0.0000 </r>
       <r>   19.7061    0.0000 </r>
       <r>   20.4509    0.0000 </r>
      </set>
      <set comment="kpoint 17">
       <r>   -2.4912    1.0000 </r>
       <r>    0.4036    1.0000 </r>
       <r>   12.7755    0.0000 </r>
       <r>   13.2669    0.0000 </r>
       <r>   14.8864    0.0000 </r>
       <r>   17.6165    0.0000 </r>
       <r>   18.1748    0.0000 </r>
       <r>   20.0578    0.0000 </r>
      </set>
      <set comment="kpoint 18">
       <r>   -2.4233    1.0000 </r>
       <r>    0.4650    1.0000 </r>
       <r>   11.9401    0.0000 </r>
       <r>   13.3176    0.0000 </r>
       <r>   15.5480    0.0000 </r>
       <r>   16.6352    0.0000 </r>
       <r>   18.2290    0.0000 </r>
       <r>   20.8754    0.0000 </r>
      </set>
      <set comment="kpoint 19">
       <r>   -2.3105    1.0000 </r>
       <r>    0.5668    1.0000 </r>
       <r>   11.0363    0.0000 </r>
       <r>   13.4016    0.0000 </r>
       <r>   15.5831    0.0000 </r>
       <r>   16.1664    0.0000 </r>
       <r>   18.3185    0.0000 </r>
       <r>   21.3982    0.0000 </r>
      </set>
      <set comment="kpoint 20">
       <r>   -2.1530    1.0000 </r>
       <r>    0.7082    1.0000 </r>
       <r>   10.1182    0.0000 </r>
       <r>   13.5178    0.0000 </r>
       <r>   14.5364    0.0000 </r>
       <r>   16.7062    0.0000 </r>
       <r>   18.4416    0.0000 </r>
       <r>   22.1021    0.0000 </r>
      </set>
      <set comment="kpoint 21">
       <r>   -1.9514    1.0000 </r>
       <r>    0.8878    1.0000 </r>
       <r>    9.2059    0.0000 </r>
       <r>   13.5202    0.0000 </r>
       <r>   13.6648    0.0000 </r>
       <r>   17.1786    0.0000 </r>
       <r>   18.5961    0.0000 </r>
       <r>   21.2249    0.0000 </r>
      </set>
      <set comment="kpoint 22">
       <r>   -1.7065    1.0000 </r>
       <r>    1.1035    1.0000 </r>
       <r>    8.3108    0.0000 </r>
       <r>   12.5465    0.0000 </r>
       <r>   13.8403    0.0000 </r>
       <r>   17.6070    0.0000 </r>
       <r>   18.7787    0.0000 </r>
       <r>   21.4816    0.0000 </r>
      </set>
      <set comment="kpoint 23">
       <r>   -1.4194    1.0000 </r>
       <r>    1.3523    1.0000 </r>
       <r>    7.4407    0.0000 </r>
       <r>   11.6236    0.0000 </r>
       <r>   14.0411    0.0000 </r>
       <r>   18.0126    0.0000 </r>
       <r>   18.9846    0.0000 </r>
       <r>   21.7685    0.0000 </r>
      </set>
      <set comment="kpoint 24">
       <r>   -1.0920    1.0000 </r>
       <r>    1.6295    1.0000 </r>
       <r>    6.6018    0.0000 </r>
       <r>   10.7590    0.0000 </r>
       <r>   14.2623    0.0000 </r>
       <r>   18.4092    0.0000 </r>
       <r>   19.2074    0.0000 </r>
       <r>   22.0865    0.0000 </r>
      </set>
      <set comment="kpoint 25">
       <r>   -0.7270    1.0000 </r>
       <r>    1.9277    1.0000 </r>
       <r>    5.8001    0.0000 </r>
       <r>    9.9619    0.0000 </r>
       <r>   14.4967    0.0000 </r>
       <r>   18.8030    0.0000 </r>
       <r>   19.4380    0.0000 </r>
       <r>   21.9546    0.0000 </r>
      </set>
      <set comment="kpoint 26">
       <r>   -0.3296    1.0000 </r>
       <r>    2.2352    1.0000 </r>
       <r>    5.0430    1.0000 </r>
       <r>    9.2450    0.0000 </r>
       <r>   14.7335    0.0000 </r>
       <r>   19.1913    0.0000 </r>
       <r>   19.6645    0.0000 </r>
       <r>   21.3839    0.0000 </r>
      </set>
      <set comment="kpoint 27">
       <r>    0.0898    1.0000 </r>
       <r>    2.5337    1.0000 </r>
       <r>    4.3423    1.0000 </r>
       <r>    8.6276    0.0000 </r>
       <r>   14.9574    0.0000 </r>
       <r>   19.5617    0.0000 </r>
       <r>   19.8714    0.0000 </r>
       <r>   20.8975    0.0000 </r>
      </set>
      <set comment="kpoint 28">
       <r>    0.5081    1.0000 </r>
       <r>    2.7948    1.0000 </r>
       <r>    3.7224    1.0000 </r>
       <r>    8.1383    0.0000 </r>
       <r>   15.1471    0.0000 </r>
       <r>   19.8873    0.0000 </r>
       <r>   20.0402    0.0000 </r>
       <r>   20.5189    0.0000 </r>
      </set>
      <set comment="kpoint 29">
       <r>    0.8650    1.0000 </r>
       <r>    2.9793    1.0000 </r>
       <r>    3.2443    1.0000 </r>
       <r>    7.8168    0.0000 </r>
       <r>   15.2768    0.0000 </r>
       <r>   20.1221    0.0000 </r>
       <r>   20.1517    0.0000 </r>
       <r>   20.2754    0.0000 </r>
      </set>
      <set comment="kpoint 30">
       <r>    1.0219    1.0000 </r>
       <r>    3.0469    1.0000 </r>
       <r>    3.0469    1.0000 </r>
       <r>    7.7035    0.0000 </r>
       <r>   15.3232    0.0000 </r>
       <r>   20.1908    0.0000 </r>
       <r>   20.1908    0.0000 </r>
       <r>   20.2099    0.0000 </r>
      </set>
      <set comment="kpoint 31">
       <r>    1.0219    1.0000 </r>
       <r>    3.0469    1.0000 </r>
       <r>    3.0469    1.0000 </r>
       <r>    7.7035    0.0000 </r>
       <r>   15.3232    0.0000 </r>
       <r>   20.1908    0.0000 </r>
       <r>   20.1908    0.0000 </r>
       <r>   20.2099    0.0000 </r>
      </set>
      <set comment="kpoint 32">
       <r>    0.7156    1.0000 </r>
       <r>    3.0912    1.0000 </r>
       <r>    3.2539    1.0000 </r>
       <r>    7.9307    0.0000 </r>
       <r>   15.2302    0.0000 </r>
       <r>   20.0343    0.0000 </r>
       <r>   20.2338    0.0000 </r>
       <r>   20.2390    0.0000 </r>
      </set>
      <set comment="kpoint 33">
       <r>    0.0426    1.0000 </r>
       <r>    3.2242    1.0000 </r>
       <r>    3.6625    1.0000 </r>
       <r>    8.5781    0.0000 </r>
       <r>   14.9693    0.0000 </r>
       <r>   19.5660    0.0000 </r>
       <r>   20.3626    0.0000 </r>
       <r>   20.3791    0.0000 </r>
      </set>
      <set comment="kpoint 34">
       <r>   -0.7422    1.0000 </r>
       <r>    3.4457    1.0000 </r>
       <r>    4.0987    1.0000 </r>
       <r>    9.5614    0.0000 </r>
       <r>   14.5848    0.0000 </r>
       <r>   18.9259    0.0000 </r>
       <r>   20.5764    0.0000 </r>
       <r>   20.6026    0.0000 </r>
      </set>
      <set comment="kpoint 35">
       <r>   -1.5371    1.0000 </r>
       <r>    3.7556    1.0000 </r>
       <r>    4.5482    1.0000 </r>
       <r>   10.7870    0.0000 </r>
       <r>   14.1266    0.0000 </r>
       <r>   18.2196    0.0000 </r>
       <r>   20.8738    0.0000 </r>
       <r>   20.9021    0.0000 </r>
      </set>
      <set comment="kpoint 36">
       <r>   -2.2987    1.0000 </r>
       <r>    4.1537    1.0000 </r>
       <r>    5.0316    1.0000 </r>
       <r>   12.1764    0.0000 </r>
       <r>   13.6376    0.0000 </r>
       <r>   17.5196    0.0000 </r>
       <r>   21.2526    0.0000 </r>
       <r>   21.2734    0.0000 </r>
      </set>
      <set comment="kpoint 37">
       <r>   -3.0047    1.0000 </r>
       <r>    4.6398    1.0000 </r>
       <r>    5.5658    0.0495 </r>
       <r>   13.1500    0.0000 </r>
       <r>   13.6480    0.0000 </r>
       <r>   16.8939    0.0000 </r>
       <r>   21.7142    0.0000 </r>
       <r>   23.5296    0.0000 </r>
      </set>
      <set comment="kpoint 38">
       <r>   -3.6427    1.0000 </r>
       <r>    5.2134    0.9996 </r>
       <r>    6.1595    0.0000 </r>
       <r>   12.6870    0.0000 </r>
       <r>   14.9418    0.0000 </r>
       <r>   16.5815    0.0000 </r>
       <r>   21.9575    0.0000 </r>
       <r>   23.0275    0.0000 </r>
      </set>
      <set comment="kpoint 39">
       <r>   -4.2050    1.0000 </r>
       <r>    5.8738    0.0000 </r>
       <r>    6.8151    0.0000 </r>
       <r>   12.2645    0.0000 </r>
       <r>   15.1293    0.0000 </r>
       <r>   17.4660    0.0000 </r>
       <r>   20.3398    0.0000 </r>
       <r>   22.2798    0.0000 </r>
      </set>
      <set comment="kpoint 40">
       <r>   -4.6866    1.0000 </r>
       <r>    6.6198    0.0000 </r>
       <r>    7.5296    0.0000 </r>
       <r>   11.8937    0.0000 </r>
       <r>   14.7115    0.0000 </r>
       <r>   18.7605    0.0000 </r>
       <r>   18.8818    0.0000 </r>
       <r>   21.5264    0.0000 </r>
      </set>
      <set comment="kpoint 41">
       <r>   -5.0841    1.0000 </r>
       <r>    7.4497    0.0000 </r>
       <r>    8.2950    0.0000 </r>
       <r>   11.5823    0.0000 </r>
       <r>   14.2315    0.0000 </r>
       <r>   17.2346    0.0000 </r>
       <r>   19.4086    0.0000 </r>
       <r>   21.7294    0.0000 </r>
      </set>
      <set comment="kpoint 42">
       <r>   -5.3953    1.0000 </r>
       <r>    8.3594    0.0000 </r>
       <r>    9.0952    0.0000 </r>
       <r>   11.3355    0.0000 </r>
       <r>   13.7414    0.0000 </r>
       <r>   15.7754    0.0000 </r>
       <r>   18.7758    0.0000 </r>
       <r>   23.1320    0.0000 </r>
      </set>
      <set comment="kpoint 43">
       <r>   -5.6186    1.0000 </r>
       <r>    9.3388    0.0000 </r>
       <r>    9.8995    0.0000 </r>
       <r>   11.1570    0.0000 </r>
       <r>   13.2300    0.0000 </r>
       <r>   14.3994    0.0000 </r>
       <r>   18.0659    0.0000 </r>
       <r>   24.5982    0.0000 </r>
      </set>
      <set comment="kpoint 44">
       <r>   -5.7529    1.0000 </r>
       <r>   10.3467    0.0000 </r>
       <r>   10.6322    0.0000 </r>
       <r>   11.0491    0.0000 </r>
       <r>   12.7093    0.0000 </r>
       <r>   13.1521    0.0000 </r>
       <r>   17.5734    0.0000 </r>
       <r>   25.6768    0.0000 </r>
      </set>
      <set comment="kpoint 45">
       <r>   -5.7977    1.0000 </r>
       <r>   11.0130    0.0000 </r>
       <r>   11.0130    0.0000 </r>
       <r>   11.0130    0.0000 </r>
       <r>   12.4057    0.0000 </r>
       <r>   12.4057    0.0000 </r>
       <r>   17.3991    0.0000 </r>
       <r>   26.0720    0.0000 </r>
      </set>
      <set comment="kpoint 46">
       <r>   -5.7977    1.0000 </r>
       <r>   11.0130    0.0000 </r>
       <r>   11.0130    0.0000 </r>
       <r>   11.0130    0.0000 </r>
       <r>   12.4057    0.0000 </r>
       <r>   12.4057    0.0000 </r>
       <r>   17.3991    0.0000 </r>
       <r>   26.0720    0.0000 </r>
      </set>
      <set comment="kpoint 47">
       <r>   -5.7305    1.0000 </r>
       <r>   10.3650    0.0000 </r>
       <r>   10.3650    0.0000 </r>
       <r>   10.8439    0.0000 </r>
       <r>   13.1701    0.0000 </r>
       <r>   13.1701    0.0000 </r>
       <r>   17.6543    0.0000 </r>
       <r>   25.6939    0.0000 </r>
      </set>
      <set comment="kpoint 48">
       <r>   -5.5290    1.0000 </r>
       <r>    9.4128    0.0000 </r>
       <r>    9.4128    0.0000 </r>
       <r>   10.4130    0.0000 </r>
       <r>   14.4702    0.0000 </r>
       <r>   14.4702    0.0000 </r>
       <r>   18.3172    0.0000 </r>
       <r>   24.6126    0.0000 </r>
      </set>
      <set comment="kpoint 49">
       <r>   -5.1942    1.0000 </r>
       <r>    8.5266    0.0000 </r>
       <r>    8.5266    0.0000 </r>
       <r>    9.8612    0.0000 </r>
       <r>   15.9304    0.0000 </r>
       <r>   15.9304    0.0000 </r>
       <r>   19.1165    0.0000 </r>
       <r>   23.0789    0.0000 </r>
      </set>
      <set comment="kpoint 50">
       <r>   -4.7277    1.0000 </r>
       <r>    7.7474    0.0000 </r>
       <r>    7.7474    0.0000 </r>
       <r>    9.2943    0.0000 </r>
       <r>   17.4998    0.0000 </r>
       <r>   17.4998    0.0000 </r>
       <r>   19.4863    0.0000 </r>
       <r>   21.3805    0.0000 </r>
      </set>
      <set comment="kpoint 51">
       <r>   -4.1320    1.0000 </r>
       <r>    7.0842    0.0000 </r>
       <r>    7.0842    0.0000 </r>
       <r>    8.7722    0.0000 </r>
       <r>   18.8498    0.0000 </r>
       <r>   19.1174    0.0000 </r>
       <r>   19.1174    0.0000 </r>
       <r>   19.7175    0.0000 </r>
      </set>
      <set comment="kpoint 52">
       <r>   -3.4104    1.0000 </r>
       <r>    6.5389    0.0000 </r>
       <r>    6.5389    0.0000 </r>
       <r>    8.3264    0.0000 </r>
       <r>   17.6549    0.0000 </r>
       <r>   18.0184    0.0000 </r>
       <r>   18.0184    0.0000 </r>
       <r>   20.9092    0.0000 </r>
      </set>
      <set comment="kpoint 53">
       <r>   -2.5681    1.0000 </r>
       <r>    6.1103    0.0000 </r>
       <r>    6.1103    0.0000 </r>
       <r>    7.9715    0.0000 </r>
       <r>   16.3307    0.0000 </r>
       <r>   16.4940    0.0000 </r>
       <r>   16.4940    0.0000 </r>
       <r>   22.6762    0.0000 </r>
      </set>
      <set comment="kpoint 54">
       <r>   -1.6121    1.0000 </r>
       <r>    5.7943    0.0000 </r>
       <r>    5.7943    0.0000 </r>
       <r>    7.7096    0.0000 </r>
       <r>   15.0200    0.0000 </r>
       <r>   15.0964    0.0000 </r>
       <r>   15.0964    0.0000 </r>
       <r>   24.3358    0.0000 </r>
      </set>
      <set comment="kpoint 55">
       <r>   -0.5526    1.0000 </r>
       <r>    5.5841    0.0281 </r>
       <r>    5.5841    0.0281 </r>
       <r>    7.5296    0.0000 </r>
       <r>   13.7818    0.0000 </r>
       <r>   13.8461    0.0000 </r>
       <r>   13.8461    0.0000 </r>
       <r>   22.0623    0.0000 </r>
      </set>
      <set comment="kpoint 56">
       <r>    0.5952    1.0000 </r>
       <r>    5.4683    0.3934 </r>
       <r>    5.4683    0.3934 </r>
       <r>    7.3983    0.0000 </r>
       <r>   12.6603    0.0000 </r>
       <r>   12.7612    0.0000 </r>
       <r>   12.7612    0.0000 </r>
       <r>   19.9358    0.0000 </r>
      </set>
      <set comment="kpoint 57">
       <r>    1.8084    1.0000 </r>
       <r>    5.4291    0.6119 </r>
       <r>    5.4291    0.6119 </r>
       <r>    7.2415    0.0000 </r>
       <r>   11.7152    0.0000 </r>
       <r>   11.8635    0.0000 </r>
       <r>   11.8635    0.0000 </r>
       <r>   18.0593    0.0000 </r>
      </set>
      <set comment="kpoint 58">
       <r>    3.0521    1.0000 </r>
       <r>    5.4405    0.5487 </r>
       <r>    5.4405    0.5487 </r>
       <r>    6.9266    0.0000 </r>
       <r>   11.0378    0.0000 </r>
       <r>   11.1813    0.0000 </r>
       <r>   11.1813    0.0000 </r>
       <r>   16.5349    0.0000 </r>
      </set>
      <set comment="kpoint 59">
       <r>    4.2728    1.0000 </r>
       <r>    5.4694    0.3876 </r>
       <r>    5.4694    0.3876 </r>
       <r>    6.3180    0.0000 </r>
       <r>   10.6902    0.0000 </r>
       <r>   10.7495    0.0000 </r>
       <r>   10.7495    0.0000 </r>
       <r>   15.5023    0.0000 </r>
      </set>
      <set comment="kpoint 60">
       <r>    5.3134    0.9725 </r>
       <r>    5.4836    0.3131 </r>
       <r>    5.4836    0.3131 </r>
       <r>    5.4836    0.3131 </r>
       <r>   10.6008    0.0000 </r>
       <r>   10.6008    0.0000 </r>
       <r>   10.6008    0.0000 </r>
       <r>   15.1288    0.0000 </r>
      </set>
      <set comment="kpoint 61">
       <r>    5.3134    0.9725 </r>
       <r>    5.4836    0.3131 </r>
       <r>    5.4836    0.3131 </r>
       <r>    5.4836    0.3131 </r>
       <r>   10.6008    0.0000 </r>
       <r>   10.6008    0.0000 </r>
       <r>   10.6008    0.0000 </r>
       <r>   15.1288    0.0000 </r>
      </set>
      <set comment="kpoint 62">
       <r>    4.5113    1.0000 </r>
       <r>    5.3687    0.8724 </r>
       <r>    5.5265    0.1369 </r>
       <r>    6.2031    0.0000 </r>
       <r>   10.6041    0.0000 </r>
       <r>   10.6477    0.0000 </r>
       <r>   10.8058    0.0000 </r>
       <r>   15.3786    0.0000 </r>
      </set>
      <set comment="kpoint 63">
       <r>    3.6020    1.0000 </r>
       <r>    5.0469    1.0000 </r>
       <r>    5.6553    0.0018 </r>
       <r>    6.8805    0.0000 </r>
       <r>   10.6437    0.0000 </r>
       <r>   10.7884    0.0000 </r>
       <r>   11.4041    0.0000 </r>
       <r>   16.0749    0.0000 </r>
      </set>
      <set comment="kpoint 64">
       <r>    2.7052    1.0000 </r>
       <r>    4.5748    1.0000 </r>
       <r>    5.8699    0.0000 </r>
       <r>    7.4507    0.0000 </r>
       <r>   10.7682    0.0000 </r>
       <r>   11.0225    0.0000 </r>
       <r>   12.3385    0.0000 </r>
       <r>   17.1117    0.0000 </r>
      </set>
      <set comment="kpoint 65">
       <r>    1.8495    1.0000 </r>
       <r>    4.0177    1.0000 </r>
       <r>    6.1701    0.0000 </r>
       <r>    7.9642    0.0000 </r>
       <r>   11.0014    0.0000 </r>
       <r>   11.3497    0.0000 </r>
       <r>   13.5261    0.0000 </r>
       <r>   18.3978    0.0000 </r>
      </set>
      <set comment="kpoint 66">
       <r>    1.0520    1.0000 </r>
       <r>    3.4304    1.0000 </r>
       <r>    6.5559    0.0000 </r>
       <r>    8.4705    0.0000 </r>
       <r>   11.3463    0.0000 </r>
       <r>   11.7693    0.0000 </r>
       <r>   14.8931    0.0000 </r>
       <r>   19.8712    0.0000 </r>
      </set>
      <set comment="kpoint 67">
       <r>    0.3234    1.0000 </r>
       <r>    2.8519    1.0000 </r>
       <r>    7.0269    0.0000 </r>
       <r>    9.0007    0.0000 </r>
       <r>   11.7985    0.0000 </r>
       <r>   12.2801    0.0000 </r>
       <r>   16.3875    0.0000 </r>
       <r>   21.4873    0.0000 </r>
      </set>
      <set comment="kpoint 68">
       <r>   -0.3294    1.0000 </r>
       <r>    2.3086    1.0000 </r>
       <r>    7.5827    0.0000 </r>
       <r>    9.5690    0.0000 </r>
       <r>   12.3528    0.0000 </r>
       <r>   12.8804    0.0000 </r>
       <r>   17.9713    0.0000 </r>
       <r>   23.1971    0.0000 </r>
      </set>
      <set comment="kpoint 69">
       <r>   -0.9018    1.0000 </r>
       <r>    1.8174    1.0000 </r>
       <r>    8.2228    0.0000 </r>
       <r>   10.1778    0.0000 </r>
       <r>   13.0047    0.0000 </r>
       <r>   13.5674    0.0000 </r>
       <r>   19.6085    0.0000 </r>
       <r>   22.1303    0.0000 </r>
      </set>
      <set comment="kpoint 70">
       <r>   -1.3904    1.0000 </r>
       <r>    1.3895    1.0000 </r>
       <r>    8.9461    0.0000 </r>
       <r>   10.8199    0.0000 </r>
       <r>   13.7503    0.0000 </r>
       <r>   14.3366    0.0000 </r>
       <r>   20.6262    0.0000 </r>
       <r>   21.2367    0.0000 </r>
      </set>
      <set comment="kpoint 71">
       <r>   -1.7928    1.0000 </r>
       <r>    1.0321    1.0000 </r>
       <r>    9.7508    0.0000 </r>
       <r>   11.4778    0.0000 </r>
       <r>   14.5857    0.0000 </r>
       <r>   15.1792    0.0000 </r>
       <r>   19.1663    0.0000 </r>
       <r>   22.4751    0.0000 </r>
      </set>
      <set comment="kpoint 72">
       <r>   -2.1074    1.0000 </r>
       <r>    0.7502    1.0000 </r>
       <r>   10.6337    0.0000 </r>
       <r>   12.1189    0.0000 </r>
       <r>   15.5051    0.0000 </r>
       <r>   16.0774    0.0000 </r>
       <r>   17.7644    0.0000 </r>
       <r>   22.0122    0.0000 </r>
      </set>
      <set comment="kpoint 73">
       <r>   -2.3329    1.0000 </r>
       <r>    0.5469    1.0000 </r>
       <r>   11.5862    0.0000 </r>
       <r>   12.6872    0.0000 </r>
       <r>   16.4365    0.0000 </r>
       <r>   16.4956    0.0000 </r>
       <r>   16.9880    0.0000 </r>
       <r>   21.2247    0.0000 </r>
      </set>
      <set comment="kpoint 74">
       <r>   -2.4685    1.0000 </r>
       <r>    0.4241    1.0000 </r>
       <r>   12.5738    0.0000 </r>
       <r>   13.0972    0.0000 </r>
       <r>   15.2219    0.0000 </r>
       <r>   17.5083    0.0000 </r>
       <r>   17.7894    0.0000 </r>
       <r>   20.4350    0.0000 </r>
      </set>
      <set comment="kpoint 75">
       <r>   -2.5138    1.0000 </r>
       <r>    0.3831    1.0000 </r>
       <r>   13.2499    0.0000 </r>
       <r>   13.2499    0.0000 </r>
       <r>   14.4698    0.0000 </r>
       <r>   18.1567    0.0000 </r>
       <r>   19.7061    0.0000 </r>
       <r>   20.4509    0.0000 </r>
      </set>
      <set comment="kpoint 76">
       <r>    1.0219    1.0000 </r>
       <r>    3.0469    1.0000 </r>
       <r>    3.0469    1.0000 </r>
       <r>    7.7035    0.0000 </r>
       <r>   15.3232    0.0000 </r>
       <r>   20.1908    0.0000 </r>
       <r>   20.1908    0.0000 </r>
       <r>   20.2099    0.0000 </r>
      </set>
      <set comment="kpoint 77">
       <r>    1.0448    1.0000 </r>
       <r>    3.0664    1.0000 </r>
       <r>    3.0664    1.0000 </r>
       <r>    7.7254    0.0000 </r>
       <r>   15.1074    0.0000 </r>
       <r>   19.8292    0.0000 </r>
       <r>   19.8292    0.0000 </r>
       <r>   20.4487    0.0000 </r>
      </set>
      <set comment="kpoint 78">
       <r>    1.1136    1.0000 </r>
       <r>    3.1246    1.0000 </r>
       <r>    3.1246    1.0000 </r>
       <r>    7.7907    0.0000 </r>
       <r>   14.5551    0.0000 </r>
       <r>   19.0181    0.0000 </r>
       <r>   19.0181    0.0000 </r>
       <r>   21.0697    0.0000 </r>
      </set>
      <set comment="kpoint 79">
       <r>    1.2282    1.0000 </r>
       <r>    3.2211    1.0000 </r>
       <r>    3.2211    1.0000 </r>
       <r>    7.8991    0.0000 </r>
       <r>   13.8224    0.0000 </r>
       <r>   18.0614    0.0000 </r>
       <r>   18.0614    0.0000 </r>
       <r>   21.9157    0.0000 </r>
      </set>
      <set comment="kpoint 80">
       <r>    1.3884    1.0000 </r>
       <r>    3.3548    1.0000 </r>
       <r>    3.3548    1.0000 </r>
       <r>    8.0497    0.0000 </r>
       <r>   13.0096    0.0000 </r>
       <r>   17.0768    0.0000 </r>
       <r>   17.0768    0.0000 </r>
       <r>   22.8847    0.0000 </r>
      </set>
      <set comment="kpoint 81">
       <r>    1.5938    1.0000 </r>
       <r>    3.5242    1.0000 </r>
       <r>    3.5242    1.0000 </r>
       <r>    8.2414    0.0000 </r>
       <r>   12.1676    0.0000 </r>
       <r>   16.1081    0.0000 </r>
       <r>   16.1081    0.0000 </r>
       <r>   21.3887    0.0000 </r>
      </set>
      <set comment="kpoint 82">
       <r>    1.8441    1.0000 </r>
       <r>    3.7270    1.0000 </r>
       <r>    3.7270    1.0000 </r>
       <r>    8.4720    0.0000 </r>
       <r>   11.3221    0.0000 </r>
       <r>   15.1752    0.0000 </r>
       <r>   15.1752    0.0000 </r>
       <r>   20.3197    0.0000 </r>
      </set>
      <set comment="kpoint 83">
       <r>    2.1390    1.0000 </r>
       <r>    3.9598    1.0000 </r>
       <r>    3.9598    1.0000 </r>
       <r>    8.7388    0.0000 </r>
       <r>   10.4873    0.0000 </r>
       <r>   14.2900    0.0000 </r>
       <r>   14.2900    0.0000 </r>
       <r>   19.3370    0.0000 </r>
      </set>
      <set comment="kpoint 84">
       <r>    2.4778    1.0000 </r>
       <r>    4.2174    1.0000 </r>
       <r>    4.2174    1.0000 </r>
       <r>    9.0371    0.0000 </r>
       <r>    9.6717    0.0000 </r>
       <r>   13.4623    0.0000 </r>
       <r>   13.4623    0.0000 </r>
       <r>   18.4173    0.0000 </r>
      </set>
      <set comment="kpoint 85">
       <r>    2.8600    1.0000 </r>
       <r>    4.4920    1.0000 </r>
       <r>    4.4920    1.0000 </r>
       <r>    8.8807    0.0000 </r>
       <r>    9.3596    0.0000 </r>
       <r>   12.7025    0.0000 </r>
       <r>   12.7025    0.0000 </r>
       <r>   17.5683    0.0000 </r>
      </set>
      <set comment="kpoint 86">
       <r>    3.2849    1.0000 </r>
       <r>    4.7718    1.0000 </r>
       <r>    4.7718    1.0000 </r>
       <r>    8.1183    0.0000 </r>
       <r>    9.6948    0.0000 </r>
       <r>   12.0242    0.0000 </r>
       <r>   12.0242    0.0000 </r>
       <r>   16.8020    0.0000 </r>
      </set>
      <set comment="kpoint 87">
       <r>    3.7516    1.0000 </r>
       <r>    5.0389    1.0000 </r>
       <r>    5.0389    1.0000 </r>
       <r>    7.3873    0.0000 </r>
       <r>   10.0234    0.0000 </r>
       <r>   11.4462    0.0000 </r>
       <r>   11.4462    0.0000 </r>
       <r>   16.1378    0.0000 </r>
      </set>
      <set comment="kpoint 88">
       <r>    4.2590    1.0000 </r>
       <r>    5.2679    0.9948 </r>
       <r>    5.2679    0.9948 </r>
       <r>    6.6903    0.0000 </r>
       <r>   10.3147    0.0000 </r>
       <r>   10.9947    0.0000 </r>
       <r>   10.9947    0.0000 </r>
       <r>   15.6068    0.0000 </r>
      </set>
      <set comment="kpoint 89">
       <r>    4.8047    1.0000 </r>
       <r>    5.4264    0.6265 </r>
       <r>    5.4264    0.6265 </r>
       <r>    6.0305    0.0000 </r>
       <r>   10.5235    0.0000 </r>
       <r>   10.7026    0.0000 </r>
       <r>   10.7026    0.0000 </r>
       <r>   15.2541    0.0000 </r>
      </set>
      <set comment="kpoint 90">
       <r>    5.3134    0.9725 </r>
       <r>    5.4836    0.3131 </r>
       <r>    5.4836    0.3131 </r>
       <r>    5.4836    0.3131 </r>
       <r>   10.6008    0.0000 </r>
       <r>   10.6008    0.0000 </r>
       <r>   10.6008    0.0000 </r>
       <r>   15.1288    0.0000 </r>
      </set>
     </set>
    </set>
   </array>
  </eigenvalues>
  <separator name="orbital magnetization" >
   <v name="MAGDIPOLOUT">      0.00000000      0.00000000      0.00000000</v>
  </separator>
  <dos>
   <i name="efermi">      5.44915950 </i>
   <total>
    <array>
     <dimension dim="1">gridpoints</dimension>
     <dimension dim="2">spin</dimension>
     <field>energy</field>
     <field>total</field>
     <field>integrated</field>
     <set>
      <set comment="spin 1">
       <r>    -7.3912     0.0000     0.0000 </r>
       <r>    -7.2743     0.0000     0.0000 </r>
       <r>    -7.1575     0.0000     0.0000 </r>
       <r>    -7.0406     0.0000     0.0000 </r>
       <r>    -6.9238     0.0000     0.0000 </r>
       <r>    -6.8069     0.0000     0.0000 </r>
       <r>    -6.6901     0.0000     0.0000 </r>
       <r>    -6.5732     0.0000     0.0000 </r>
       <r>    -6.4564     0.0000     0.0000 </r>
       <r>    -6.3395     0.0000     0.0000 </r>
       <r>    -6.2226     0.0000     0.0000 </r>
       <r>    -6.1058     0.0000     0.0000 </r>
       <r>    -5.9889     0.0023     0.0003 </r>
       <r>    -5.8721     0.1126     0.0134 </r>
       <r>    -5.7552     0.6330     0.0874 </r>
       <r>    -5.6384     0.6512     0.1635 </r>
       <r>    -5.5215     0.4019     0.2104 </r>
       <r>    -5.4047     0.3120     0.2469 </r>
       <r>    -5.2878     0.2210     0.2727 </r>
       <r>    -5.1709     0.2501     0.3020 </r>
       <r>    -5.0541     0.2424     0.3303 </r>
       <r>    -4.9372     0.1782     0.3511 </r>
       <r>    -4.8204     0.0753     0.3599 </r>
       <r>    -4.7035     0.2726     0.3918 </r>
       <r>    -4.5867     0.2364     0.4194 </r>
       <r>    -4.4698     0.0553     0.4258 </r>
       <r>    -4.3530     0.1153     0.4393 </r>
       <r>    -4.2361     0.1189     0.4532 </r>
       <r>    -4.1192     0.2328     0.4804 </r>
       <r>    -4.0024     0.2073     0.5046 </r>
       <r>    -3.8855     0.0536     0.5109 </r>
       <r>    -3.7687     0.0251     0.5138 </r>
       <r>    -3.6518     0.1784     0.5347 </r>
       <r>    -3.5350     0.1689     0.5544 </r>
       <r>    -3.4181     0.1020     0.5663 </r>
       <r>    -3.3013     0.1638     0.5855 </r>
       <r>    -3.1844     0.1104     0.5984 </r>
       <r>    -3.0676     0.0524     0.6045 </r>
       <r>    -2.9507     0.1699     0.6244 </r>
       <r>    -2.8338     0.1482     0.6417 </r>
       <r>    -2.7170     0.0483     0.6473 </r>
       <r>    -2.6001     0.2448     0.6759 </r>
       <r>    -2.4833     0.6919     0.7568 </r>
       <r>    -2.3664     0.6212     0.8294 </r>
       <r>    -2.2496     0.4224     0.8787 </r>
       <r>    -2.1327     0.2697     0.9102 </r>
       <r>    -2.0159     0.2087     0.9346 </r>
       <r>    -1.8990     0.1485     0.9520 </r>
       <r>    -1.7821     0.1642     0.9712 </r>
       <r>    -1.6653     0.2364     0.9988 </r>
       <r>    -1.5484     0.2550     1.0286 </r>
       <r>    -1.4316     0.2572     1.0586 </r>
       <r>    -1.3147     0.2186     1.0842 </r>
       <r>    -1.1979     0.0522     1.0903 </r>
       <r>    -1.0810     0.0959     1.1015 </r>
       <r>    -0.9642     0.1118     1.1146 </r>
       <r>    -0.8473     0.1403     1.1309 </r>
       <r>    -0.7304     0.2192     1.1566 </r>
       <r>    -0.6136     0.2017     1.1801 </r>
       <r>    -0.4967     0.1326     1.1956 </r>
       <r>    -0.3799     0.1268     1.2104 </r>
       <r>    -0.2630     0.2251     1.2367 </r>
       <r>    -0.1462     0.0649     1.2443 </r>
       <r>    -0.0293     0.0392     1.2489 </r>
       <r>     0.0875     0.1949     1.2717 </r>
       <r>     0.2044     0.1479     1.2890 </r>
       <r>     0.3213     0.2432     1.3174 </r>
       <r>     0.4381     0.7552     1.4056 </r>
       <r>     0.5550     0.7967     1.4987 </r>
       <r>     0.6718     0.5658     1.5648 </r>
       <r>     0.7887     0.4254     1.6146 </r>
       <r>     0.9055     0.3994     1.6612 </r>
       <r>     1.0224     0.7439     1.7482 </r>
       <r>     1.1392     0.8288     1.8450 </r>
       <r>     1.2561     0.3294     1.8835 </r>
       <r>     1.3730     0.3172     1.9206 </r>
       <r>     1.4898     0.3276     1.9588 </r>
       <r>     1.6067     0.3084     1.9949 </r>
       <r>     1.7235     0.2645     2.0258 </r>
       <r>     1.8404     0.4137     2.0741 </r>
       <r>     1.9572     0.4128     2.1224 </r>
       <r>     2.0741     0.1289     2.1374 </r>
       <r>     2.1909     0.2270     2.1640 </r>
       <r>     2.3078     0.3486     2.2047 </r>
       <r>     2.4247     0.1938     2.2274 </r>
       <r>     2.5415     0.2167     2.2527 </r>
       <r>     2.6584     0.1658     2.2720 </r>
       <r>     2.7752     0.2369     2.2997 </r>
       <r>     2.8921     0.4029     2.3468 </r>
       <r>     3.0089     0.8207     2.4427 </r>
       <r>     3.1258     1.4725     2.6148 </r>
       <r>     3.2426     1.0183     2.7338 </r>
       <r>     3.3595     0.7567     2.8222 </r>
       <r>     3.4764     0.5442     2.8858 </r>
       <r>     3.5932     0.4776     2.9416 </r>
       <r>     3.7101     0.6014     3.0119 </r>
       <r>     3.8269     0.6809     3.0914 </r>
       <r>     3.9438     0.3477     3.1321 </r>
       <r>     4.0606     0.3898     3.1776 </r>
       <r>     4.1775     0.4350     3.2285 </r>
       <r>     4.2943     0.5673     3.2948 </r>
       <r>     4.4112     0.3600     3.3368 </r>
       <r>     4.5281     0.4825     3.3932 </r>
       <r>     4.6449     0.5556     3.4581 </r>
       <r>     4.7618     0.4510     3.5108 </r>
       <r>     4.8786     0.3401     3.5506 </r>
       <r>     4.9955     0.2945     3.5850 </r>
       <r>     5.1123     0.5743     3.6521 </r>
       <r>     5.2292     0.4182     3.7010 </r>
       <r>     5.3460     0.8838     3.8042 </r>
       <r>     5.4629     1.9744     4.0350 </r>
       <r>     5.5798     2.1259     4.2834 </r>
       <r>     5.6966     0.7577     4.3719 </r>
       <r>     5.8135     0.4654     4.4263 </r>
       <r>     5.9303     0.4585     4.4799 </r>
       <r>     6.0472     0.2792     4.5125 </r>
       <r>     6.1640     0.5242     4.5738 </r>
       <r>     6.2809     0.4236     4.6233 </r>
       <r>     6.3977     0.1718     4.6433 </r>
       <r>     6.5146     0.3049     4.6790 </r>
       <r>     6.6315     0.6565     4.7557 </r>
       <r>     6.7483     0.3682     4.7987 </r>
       <r>     6.8652     0.2723     4.8305 </r>
       <r>     6.9820     0.3303     4.8691 </r>
       <r>     7.0989     0.3638     4.9116 </r>
       <r>     7.2157     0.2438     4.9401 </r>
       <r>     7.3326     0.2207     4.9659 </r>
       <r>     7.4494     0.5904     5.0349 </r>
       <r>     7.5663     0.7531     5.1229 </r>
       <r>     7.6832     0.6843     5.2029 </r>
       <r>     7.8000     0.9503     5.3139 </r>
       <r>     7.9169     0.6198     5.3863 </r>
       <r>     8.0337     0.5251     5.4477 </r>
       <r>     8.1506     0.4380     5.4989 </r>
       <r>     8.2674     0.5322     5.5611 </r>
       <r>     8.3843     0.6076     5.6321 </r>
       <r>     8.5011     0.6021     5.7025 </r>
       <r>     8.6180     0.6279     5.7758 </r>
       <r>     8.7349     0.3429     5.8159 </r>
       <r>     8.8517     0.2952     5.8504 </r>
       <r>     8.9686     0.3375     5.8898 </r>
       <r>     9.0854     0.3940     5.9359 </r>
       <r>     9.2023     0.3234     5.9737 </r>
       <r>     9.3191     0.4721     6.0288 </r>
       <r>     9.4360     0.5538     6.0935 </r>
       <r>     9.5528     0.4525     6.1464 </r>
       <r>     9.6697     0.4254     6.1961 </r>
       <r>     9.7866     0.3659     6.2389 </r>
       <r>     9.9034     0.3289     6.2773 </r>
       <r>    10.0203     0.3496     6.3182 </r>
       <r>    10.1371     0.2888     6.3519 </r>
       <r>    10.2540     0.2693     6.3834 </r>
       <r>    10.3708     0.5099     6.4430 </r>
       <r>    10.4877     0.7387     6.5293 </r>
       <r>    10.6045     1.4793     6.7022 </r>
       <r>    10.7214     1.9338     6.9281 </r>
       <r>    10.8383     1.3375     7.0844 </r>
       <r>    10.9551     1.0691     7.2094 </r>
       <r>    11.0720     2.2370     7.4708 </r>
       <r>    11.1888     1.4507     7.6403 </r>
       <r>    11.3057     0.8692     7.7419 </r>
       <r>    11.4225     1.0047     7.8593 </r>
       <r>    11.5394     0.8507     7.9587 </r>
       <r>    11.6562     0.6944     8.0398 </r>
       <r>    11.7731     0.6232     8.1126 </r>
       <r>    11.8900     0.7993     8.2060 </r>
       <r>    12.0068     0.6681     8.2841 </r>
       <r>    12.1237     0.6510     8.3602 </r>
       <r>    12.2405     0.6390     8.4349 </r>
       <r>    12.3574     0.9763     8.5489 </r>
       <r>    12.4742     1.2901     8.6997 </r>
       <r>    12.5911     0.9172     8.8069 </r>
       <r>    12.7079     1.1975     8.9468 </r>
       <r>    12.8248     1.1354     9.0795 </r>
       <r>    12.9417     0.7814     9.1708 </r>
       <r>    13.0585     0.7898     9.2631 </r>
       <r>    13.1754     1.2076     9.4042 </r>
       <r>    13.2922     1.6149     9.5929 </r>
       <r>    13.4091     0.8521     9.6925 </r>
       <r>    13.5259     0.8000     9.7860 </r>
       <r>    13.6428     0.7935     9.8787 </r>
       <r>    13.7596     0.8961     9.9834 </r>
       <r>    13.8765     0.8705    10.0851 </r>
       <r>    13.9933     0.4193    10.1341 </r>
       <r>    14.1102     0.3025    10.1695 </r>
       <r>    14.2271     0.4764    10.2251 </r>
       <r>    14.3439     0.7569    10.3136 </r>
       <r>    14.4608     1.0271    10.4336 </r>
       <r>    14.5776     1.1712    10.5705 </r>
       <r>    14.6945     0.5439    10.6340 </r>
       <r>    14.8113     0.3018    10.6693 </r>
       <r>    14.9282     0.4690    10.7241 </r>
       <r>    15.0450     0.7776    10.8150 </r>
       <r>    15.1619     1.4096    10.9797 </r>
       <r>    15.2788     1.3519    11.1377 </r>
       <r>    15.3956     0.7605    11.2265 </r>
       <r>    15.5125     0.4627    11.2806 </r>
       <r>    15.6293     0.5369    11.3433 </r>
       <r>    15.7462     0.3245    11.3813 </r>
       <r>    15.8630     0.2046    11.4052 </r>
       <r>    15.9799     0.2961    11.4398 </r>
       <r>    16.0967     0.5778    11.5073 </r>
       <r>    16.2136     0.6691    11.5855 </r>
       <r>    16.3305     0.2746    11.6176 </r>
       <r>    16.4473     0.4692    11.6724 </r>
       <r>    16.5642     0.7516    11.7602 </r>
       <r>    16.6810     0.5278    11.8219 </r>
       <r>    16.7979     0.2806    11.8547 </r>
       <r>    16.9147     0.2662    11.8858 </r>
       <r>    17.0316     0.4206    11.9349 </r>
       <r>    17.1484     0.5201    11.9957 </r>
       <r>    17.2653     0.3474    12.0363 </r>
       <r>    17.3822     0.4037    12.0835 </r>
       <r>    17.4990     1.0116    12.2017 </r>
       <r>    17.6159     1.0947    12.3296 </r>
       <r>    17.7327     0.6927    12.4106 </r>
       <r>    17.8496     0.4522    12.4634 </r>
       <r>    17.9664     0.4762    12.5190 </r>
       <r>    18.0833     0.9807    12.6336 </r>
       <r>    18.2001     1.0917    12.7612 </r>
       <r>    18.3170     1.0349    12.8822 </r>
       <r>    18.4339     0.8675    12.9835 </r>
       <r>    18.5507     0.6223    13.0562 </r>
       <r>    18.6676     0.2918    13.0903 </r>
       <r>    18.7844     0.4644    13.1446 </r>
       <r>    18.9013     0.9068    13.2506 </r>
       <r>    19.0181     0.9751    13.3645 </r>
       <r>    19.1350     0.7544    13.4527 </r>
       <r>    19.2518     0.5948    13.5222 </r>
       <r>    19.3687     0.4333    13.5728 </r>
       <r>    19.4856     0.7521    13.6607 </r>
       <r>    19.6024     0.6684    13.7388 </r>
       <r>    19.7193     0.7449    13.8259 </r>
       <r>    19.8361     0.8160    13.9212 </r>
       <r>    19.9530     0.7715    14.0114 </r>
       <r>    20.0698     0.7990    14.1047 </r>
       <r>    20.1867     1.3830    14.2663 </r>
       <r>    20.3035     1.4946    14.4410 </r>
       <r>    20.4204     1.0060    14.5586 </r>
       <r>    20.5373     0.8573    14.6587 </r>
       <r>    20.6541     0.5524    14.7233 </r>
       <r>    20.7710     0.4915    14.7807 </r>
       <r>    20.8878     0.6090    14.8519 </r>
       <r>    21.0047     0.4857    14.9086 </r>
       <r>    21.1215     0.2130    14.9335 </r>
       <r>    21.2384     0.4654    14.9879 </r>
       <r>    21.3552     0.6922    15.0688 </r>
       <r>    21.4721     0.7553    15.1571 </r>
       <r>    21.5890     0.5586    15.2223 </r>
       <r>    21.7058     0.3598    15.2644 </r>
       <r>    21.8227     0.3577    15.3062 </r>
       <r>    21.9395     0.3586    15.3481 </r>
       <r>    22.0564     0.5899    15.4170 </r>
       <r>    22.1732     0.5303    15.4790 </r>
       <r>    22.2901     0.3105    15.5153 </r>
       <r>    22.4069     0.1755    15.5358 </r>
       <r>    22.5238     0.1255    15.5504 </r>
       <r>    22.6407     0.1005    15.5622 </r>
       <r>    22.7575     0.1165    15.5758 </r>
       <r>    22.8744     0.1043    15.5880 </r>
       <r>    22.9912     0.1977    15.6111 </r>
       <r>    23.1081     0.4188    15.6600 </r>
       <r>    23.2249     0.3462    15.7005 </r>
       <r>    23.3418     0.0875    15.7107 </r>
       <r>    23.4586     0.0334    15.7146 </r>
       <r>    23.5755     0.1111    15.7276 </r>
       <r>    23.6924     0.0477    15.7332 </r>
       <r>    23.8092     0.0289    15.7365 </r>
       <r>    23.9261     0.1101    15.7494 </r>
       <r>    24.0429     0.0503    15.7553 </r>
       <r>    24.1598     0.0036    15.7557 </r>
       <r>    24.2766     0.0371    15.7600 </r>
       <r>    24.3935     0.1130    15.7732 </r>
       <r>    24.5103     0.0744    15.7819 </r>
       <r>    24.6272     0.2536    15.8116 </r>
       <r>    24.7441     0.2445    15.8401 </r>
       <r>    24.8609     0.0361    15.8444 </r>
       <r>    24.9778     0.0007    15.8444 </r>
       <r>    25.0946     0.0000    15.8444 </r>
       <r>    25.2115     0.0027    15.8448 </r>
       <r>    25.3283     0.0536    15.8510 </r>
       <r>    25.4452     0.1089    15.8638 </r>
       <r>    25.5620     0.0403    15.8685 </r>
       <r>    25.6789     0.1616    15.8873 </r>
       <r>    25.7958     0.2038    15.9112 </r>
       <r>    25.9126     0.1373    15.9272 </r>
       <r>    26.0295     0.2058    15.9512 </r>
       <r>    26.1463     0.3337    15.9902 </r>
       <r>    26.2632     0.0816    15.9998 </r>
       <r>    26.3800     0.0019    16.0000 </r>
       <r>    26.4969     0.0000    16.0000 </r>
       <r>    26.6137     0.0000    16.0000 </r>
       <r>    26.7306     0.0000    16.0000 </r>
       <r>    26.8475     0.0000    16.0000 </r>
       <r>    26.9643     0.0000    16.0000 </r>
       <r>    27.0812     0.0000    16.0000 </r>
       <r>    27.1980     0.0000    16.0000 </r>
       <r>    27.3149     0.0000    16.0000 </r>
       <r>    27.4317     0.0000    16.0000 </r>
       <r>    27.5486     0.0000    16.0000 </r>
       <r>    27.6654     0.0000    16.0000 </r>
      </set>
     </set>
    </array>
   </total>
  </dos>
 </calculation>
 <structure name="finalpos" >
  <crystal>
   <varray name="basis" >
    <v>       0.00000000       0.00000000      -2.79915193 </v>
    <v>      -0.00000000      -2.79915193      -0.00000000 </v>
    <v>      -2.79915193       0.00000000       0.00000000 </v>
   </varray>
   <i name="volume">     21.93205945 </i>
   <varray name="rec_basis" >
    <v>      -0.00000000       0.00000000      -0.35725106 </v>
    <v>      -0.00000000      -0.35725106      -0.00000000 </v>
    <v>      -0.35725106       0.00000000      -0.00000000 </v>
   </varray>
  </crystal>
  <varray name="positions" >
   <v>       0.68412400       0.40226300       0.62359700 </v>
  </varray>
 </structure>
</modeling>
