<?xml version="1.0" encoding="ISO-8859-1"?>
<modeling>
 <generator>
  <i name="program" type="string">vasp </i>
  <i name="version" type="string">5.4.4.18Apr17-6-g9f103f2a35  </i>
  <i name="subversion" type="string">(build May 22 2019 20:40:36) complex            parallel </i>
  <i name="platform" type="string">NGM1Y2Zi </i>
  <i name="date" type="string">2019 06 22 </i>
  <i name="time" type="string">00:12:06 </i>
 </generator>
 <incar>
  <i type="string" name="SYSTEM"> Diamond si</i>
  <i type="int" name="ISTART">     0</i>
  <i type="string" name="PREC">normal</i>
  <i type="int" name="ICHARG">     2</i>
  <i type="int" name="IBRION">     2</i>
  <i name="EDIFF">      0.00001000</i>
  <i name="EDIFFG">      0.02000000</i>
  <i type="int" name="NSW">    20</i>
  <i type="int" name="ISIF">     3</i>
  <i name="ENCUT">    300.00000000</i>
  <i type="int" name="ISMEAR">     0</i>
  <i name="SIGMA">      0.10000000</i>
  <v type="int" name="KPOINT_BSE">    -1     0     0     0</v>
 </incar>
 <structure name="primitive_cell" >
  <crystal>
   <varray name="basis" >
    <v>       0.00000000      -1.93350000      -1.93350000 </v>
    <v>       1.93350000       0.00000000      -1.93350000 </v>
    <v>       1.93350000      -1.93350000       0.00000000 </v>
   </varray>
   <i name="volume">     14.45647884 </i>
   <varray name="rec_basis" >
    <v>      -0.25859840      -0.25859840      -0.25859840 </v>
    <v>       0.25859840       0.25859840      -0.25859840 </v>
    <v>       0.25859840      -0.25859840       0.25859840 </v>
   </varray>
  </crystal>
  <varray name="positions" >
   <v>       0.00000000       0.00000000       0.00000000 </v>
   <v>       0.25000000       0.25000000       0.25000000 </v>
  </varray>
 </structure>
 <varray name="primitive_index" >
  <v type="int" >        1 </v>
  <v type="int" >        2 </v>
 </varray>
 <kpoints>
  <generation param="listgenerated">
   <i name="divisions" type="int">      20 </i>
   <v>       0.00000000       0.00000000       0.00000000 </v>
   <v>       0.50000000       0.00000000       0.50000000 </v>
   <v>       0.50000000       0.25000000       0.75000000 </v>
   <v>       0.37500000       0.37500000       0.75000000 </v>
   <v>       0.00000000       0.00000000       0.00000000 </v>
   <v>       0.50000000       0.50000000       0.50000000 </v>
   <v>       0.62500000       0.25000000       0.62500000 </v>
   <v>       0.50000000       0.25000000       0.75000000 </v>
   <v>       0.50000000       0.50000000       0.50000000 </v>
   <v>       0.62500000       0.25000000       0.62500000 </v>
   <v>       0.50000000       0.00000000       0.50000000 </v>
  </generation>
  <varray name="kpointlist" >
   <v>       0.00000000       0.00000000       0.00000000 </v>
   <v>       0.02631579       0.00000000       0.02631579 </v>
   <v>       0.05263158       0.00000000       0.05263158 </v>
   <v>       0.07894737       0.00000000       0.07894737 </v>
   <v>       0.10526316       0.00000000       0.10526316 </v>
   <v>       0.13157895       0.00000000       0.13157895 </v>
   <v>       0.15789474       0.00000000       0.15789474 </v>
   <v>       0.18421053       0.00000000       0.18421053 </v>
   <v>       0.21052632       0.00000000       0.21052632 </v>
   <v>       0.23684211       0.00000000       0.23684211 </v>
   <v>       0.26315789       0.00000000       0.26315789 </v>
   <v>       0.28947368       0.00000000       0.28947368 </v>
   <v>       0.31578947       0.00000000       0.31578947 </v>
   <v>       0.34210526       0.00000000       0.34210526 </v>
   <v>       0.36842105       0.00000000       0.36842105 </v>
   <v>       0.39473684       0.00000000       0.39473684 </v>
   <v>       0.42105263       0.00000000       0.42105263 </v>
   <v>       0.44736842       0.00000000       0.44736842 </v>
   <v>       0.47368421       0.00000000       0.47368421 </v>
   <v>       0.50000000       0.00000000       0.50000000 </v>
   <v>       0.50000000       0.00000000       0.50000000 </v>
   <v>       0.50000000       0.01315789       0.51315789 </v>
   <v>       0.50000000       0.02631579       0.52631579 </v>
   <v>       0.50000000       0.03947368       0.53947368 </v>
   <v>       0.50000000       0.05263158       0.55263158 </v>
   <v>       0.50000000       0.06578947       0.56578947 </v>
   <v>       0.50000000       0.07894737       0.57894737 </v>
   <v>       0.50000000       0.09210526       0.59210526 </v>
   <v>       0.50000000       0.10526316       0.60526316 </v>
   <v>       0.50000000       0.11842105       0.61842105 </v>
   <v>       0.50000000       0.13157895       0.63157895 </v>
   <v>       0.50000000       0.14473684       0.64473684 </v>
   <v>       0.50000000       0.15789474       0.65789474 </v>
   <v>       0.50000000       0.17105263       0.67105263 </v>
   <v>       0.50000000       0.18421053       0.68421053 </v>
   <v>       0.50000000       0.19736842       0.69736842 </v>
   <v>       0.50000000       0.21052632       0.71052632 </v>
   <v>       0.50000000       0.22368421       0.72368421 </v>
   <v>       0.50000000       0.23684211       0.73684211 </v>
   <v>       0.50000000       0.25000000       0.75000000 </v>
   <v>       0.50000000       0.25000000       0.75000000 </v>
   <v>       0.49342105       0.25657895       0.75000000 </v>
   <v>       0.48684211       0.26315789       0.75000000 </v>
   <v>       0.48026316       0.26973684       0.75000000 </v>
   <v>       0.47368421       0.27631579       0.75000000 </v>
   <v>       0.46710526       0.28289474       0.75000000 </v>
   <v>       0.46052632       0.28947368       0.75000000 </v>
   <v>       0.45394737       0.29605263       0.75000000 </v>
   <v>       0.44736842       0.30263158       0.75000000 </v>
   <v>       0.44078947       0.30921053       0.75000000 </v>
   <v>       0.43421053       0.31578947       0.75000000 </v>
   <v>       0.42763158       0.32236842       0.75000000 </v>
   <v>       0.42105263       0.32894737       0.75000000 </v>
   <v>       0.41447368       0.33552632       0.75000000 </v>
   <v>       0.40789474       0.34210526       0.75000000 </v>
   <v>       0.40131579       0.34868421       0.75000000 </v>
   <v>       0.39473684       0.35526316       0.75000000 </v>
   <v>       0.38815789       0.36184211       0.75000000 </v>
   <v>       0.38157895       0.36842105       0.75000000 </v>
   <v>       0.37500000       0.37500000       0.75000000 </v>
   <v>       0.37500000       0.37500000       0.75000000 </v>
   <v>       0.35526316       0.35526316       0.71052632 </v>
   <v>       0.33552632       0.33552632       0.67105263 </v>
   <v>       0.31578947       0.31578947       0.63157895 </v>
   <v>       0.29605263       0.29605263       0.59210526 </v>
   <v>       0.27631579       0.27631579       0.55263158 </v>
   <v>       0.25657895       0.25657895       0.51315789 </v>
   <v>       0.23684211       0.23684211       0.47368421 </v>
   <v>       0.21710526       0.21710526       0.43421053 </v>
   <v>       0.19736842       0.19736842       0.39473684 </v>
   <v>       0.17763158       0.17763158       0.35526316 </v>
   <v>       0.15789474       0.15789474       0.31578947 </v>
   <v>       0.13815789       0.13815789       0.27631579 </v>
   <v>       0.11842105       0.11842105       0.23684211 </v>
   <v>       0.09868421       0.09868421       0.19736842 </v>
   <v>       0.07894737       0.07894737       0.15789474 </v>
   <v>       0.05921053       0.05921053       0.11842105 </v>
   <v>       0.03947368       0.03947368       0.07894737 </v>
   <v>       0.01973684       0.01973684       0.03947368 </v>
   <v>       0.00000000       0.00000000       0.00000000 </v>
   <v>       0.00000000       0.00000000       0.00000000 </v>
   <v>       0.02631579       0.02631579       0.02631579 </v>
   <v>       0.05263158       0.05263158       0.05263158 </v>
   <v>       0.07894737       0.07894737       0.07894737 </v>
   <v>       0.10526316       0.10526316       0.10526316 </v>
   <v>       0.13157895       0.13157895       0.13157895 </v>
   <v>       0.15789474       0.15789474       0.15789474 </v>
   <v>       0.18421053       0.18421053       0.18421053 </v>
   <v>       0.21052632       0.21052632       0.21052632 </v>
   <v>       0.23684211       0.23684211       0.23684211 </v>
   <v>       0.26315789       0.26315789       0.26315789 </v>
   <v>       0.28947368       0.28947368       0.28947368 </v>
   <v>       0.31578947       0.31578947       0.31578947 </v>
   <v>       0.34210526       0.34210526       0.34210526 </v>
   <v>       0.36842105       0.36842105       0.36842105 </v>
   <v>       0.39473684       0.39473684       0.39473684 </v>
   <v>       0.42105263       0.42105263       0.42105263 </v>
   <v>       0.44736842       0.44736842       0.44736842 </v>
   <v>       0.47368421       0.47368421       0.47368421 </v>
   <v>       0.50000000       0.50000000       0.50000000 </v>
   <v>       0.50000000       0.50000000       0.50000000 </v>
   <v>       0.50657895       0.48684211       0.50657895 </v>
   <v>       0.51315789       0.47368421       0.51315789 </v>
   <v>       0.51973684       0.46052632       0.51973684 </v>
   <v>       0.52631579       0.44736842       0.52631579 </v>
   <v>       0.53289474       0.43421053       0.53289474 </v>
   <v>       0.53947368       0.42105263       0.53947368 </v>
   <v>       0.54605263       0.40789474       0.54605263 </v>
   <v>       0.55263158       0.39473684       0.55263158 </v>
   <v>       0.55921053       0.38157895       0.55921053 </v>
   <v>       0.56578947       0.36842105       0.56578947 </v>
   <v>       0.57236842       0.35526316       0.57236842 </v>
   <v>       0.57894737       0.34210526       0.57894737 </v>
   <v>       0.58552632       0.32894737       0.58552632 </v>
   <v>       0.59210526       0.31578947       0.59210526 </v>
   <v>       0.59868421       0.30263158       0.59868421 </v>
   <v>       0.60526316       0.28947368       0.60526316 </v>
   <v>       0.61184211       0.27631579       0.61184211 </v>
   <v>       0.61842105       0.26315789       0.61842105 </v>
   <v>       0.62500000       0.25000000       0.62500000 </v>
   <v>       0.62500000       0.25000000       0.62500000 </v>
   <v>       0.61842105       0.25000000       0.63157895 </v>
   <v>       0.61184211       0.25000000       0.63815789 </v>
   <v>       0.60526316       0.25000000       0.64473684 </v>
   <v>       0.59868421       0.25000000       0.65131579 </v>
   <v>       0.59210526       0.25000000       0.65789474 </v>
   <v>       0.58552632       0.25000000       0.66447368 </v>
   <v>       0.57894737       0.25000000       0.67105263 </v>
   <v>       0.57236842       0.25000000       0.67763158 </v>
   <v>       0.56578947       0.25000000       0.68421053 </v>
   <v>       0.55921053       0.25000000       0.69078947 </v>
   <v>       0.55263158       0.25000000       0.69736842 </v>
   <v>       0.54605263       0.25000000       0.70394737 </v>
   <v>       0.53947368       0.25000000       0.71052632 </v>
   <v>       0.53289474       0.25000000       0.71710526 </v>
   <v>       0.52631579       0.25000000       0.72368421 </v>
   <v>       0.51973684       0.25000000       0.73026316 </v>
   <v>       0.51315789       0.25000000       0.73684211 </v>
   <v>       0.50657895       0.25000000       0.74342105 </v>
   <v>       0.50000000       0.25000000       0.75000000 </v>
   <v>       0.50000000       0.25000000       0.75000000 </v>
   <v>       0.50000000       0.26315789       0.73684211 </v>
   <v>       0.50000000       0.27631579       0.72368421 </v>
   <v>       0.50000000       0.28947368       0.71052632 </v>
   <v>       0.50000000       0.30263158       0.69736842 </v>
   <v>       0.50000000       0.31578947       0.68421053 </v>
   <v>       0.50000000       0.32894737       0.67105263 </v>
   <v>       0.50000000       0.34210526       0.65789474 </v>
   <v>       0.50000000       0.35526316       0.64473684 </v>
   <v>       0.50000000       0.36842105       0.63157895 </v>
   <v>       0.50000000       0.38157895       0.61842105 </v>
   <v>       0.50000000       0.39473684       0.60526316 </v>
   <v>       0.50000000       0.40789474       0.59210526 </v>
   <v>       0.50000000       0.42105263       0.57894737 </v>
   <v>       0.50000000       0.43421053       0.56578947 </v>
   <v>       0.50000000       0.44736842       0.55263158 </v>
   <v>       0.50000000       0.46052632       0.53947368 </v>
   <v>       0.50000000       0.47368421       0.52631579 </v>
   <v>       0.50000000       0.48684211       0.51315789 </v>
   <v>       0.50000000       0.50000000       0.50000000 </v>
   <v>       0.50000000       0.50000000       0.50000000 </v>
   <v>       0.49342105       0.49342105       0.51315789 </v>
   <v>       0.48684211       0.48684211       0.52631579 </v>
   <v>       0.48026316       0.48026316       0.53947368 </v>
   <v>       0.47368421       0.47368421       0.55263158 </v>
   <v>       0.46710526       0.46710526       0.56578947 </v>
   <v>       0.46052632       0.46052632       0.57894737 </v>
   <v>       0.45394737       0.45394737       0.59210526 </v>
   <v>       0.44736842       0.44736842       0.60526316 </v>
   <v>       0.44078947       0.44078947       0.61842105 </v>
   <v>       0.43421053       0.43421053       0.63157895 </v>
   <v>       0.42763158       0.42763158       0.64473684 </v>
   <v>       0.42105263       0.42105263       0.65789474 </v>
   <v>       0.41447368       0.41447368       0.67105263 </v>
   <v>       0.40789474       0.40789474       0.68421053 </v>
   <v>       0.40131579       0.40131579       0.69736842 </v>
   <v>       0.39473684       0.39473684       0.71052632 </v>
   <v>       0.38815789       0.38815789       0.72368421 </v>
   <v>       0.38157895       0.38157895       0.73684211 </v>
   <v>       0.37500000       0.37500000       0.75000000 </v>
   <v>       0.62500000       0.25000000       0.62500000 </v>
   <v>       0.61842105       0.23684211       0.61842105 </v>
   <v>       0.61184211       0.22368421       0.61184211 </v>
   <v>       0.60526316       0.21052632       0.60526316 </v>
   <v>       0.59868421       0.19736842       0.59868421 </v>
   <v>       0.59210526       0.18421053       0.59210526 </v>
   <v>       0.58552632       0.17105263       0.58552632 </v>
   <v>       0.57894737       0.15789474       0.57894737 </v>
   <v>       0.57236842       0.14473684       0.57236842 </v>
   <v>       0.56578947       0.13157895       0.56578947 </v>
   <v>       0.55921053       0.11842105       0.55921053 </v>
   <v>       0.55263158       0.10526316       0.55263158 </v>
   <v>       0.54605263       0.09210526       0.54605263 </v>
   <v>       0.53947368       0.07894737       0.53947368 </v>
   <v>       0.53289474       0.06578947       0.53289474 </v>
   <v>       0.52631579       0.05263158       0.52631579 </v>
   <v>       0.51973684       0.03947368       0.51973684 </v>
   <v>       0.51315789       0.02631579       0.51315789 </v>
   <v>       0.50657895       0.01315789       0.50657895 </v>
   <v>       0.50000000       0.00000000       0.50000000 </v>
  </varray>
  <varray name="weights" >
   <v>       0.00500000 </v>
   <v>       0.00500000 </v>
   <v>       0.00500000 </v>
   <v>       0.00500000 </v>
   <v>       0.00500000 </v>
   <v>       0.00500000 </v>
   <v>       0.00500000 </v>
   <v>       0.00500000 </v>
   <v>       0.00500000 </v>
   <v>       0.00500000 </v>
   <v>       0.00500000 </v>
   <v>       0.00500000 </v>
   <v>       0.00500000 </v>
   <v>       0.00500000 </v>
   <v>       0.00500000 </v>
   <v>       0.00500000 </v>
   <v>       0.00500000 </v>
   <v>       0.00500000 </v>
   <v>       0.00500000 </v>
   <v>       0.00500000 </v>
   <v>       0.00500000 </v>
   <v>       0.00500000 </v>
   <v>       0.00500000 </v>
   <v>       0.00500000 </v>
   <v>       0.00500000 </v>
   <v>       0.00500000 </v>
   <v>       0.00500000 </v>
   <v>       0.00500000 </v>
   <v>       0.00500000 </v>
   <v>       0.00500000 </v>
   <v>       0.00500000 </v>
   <v>       0.00500000 </v>
   <v>       0.00500000 </v>
   <v>       0.00500000 </v>
   <v>       0.00500000 </v>
   <v>       0.00500000 </v>
   <v>       0.00500000 </v>
   <v>       0.00500000 </v>
   <v>       0.00500000 </v>
   <v>       0.00500000 </v>
   <v>       0.00500000 </v>
   <v>       0.00500000 </v>
   <v>       0.00500000 </v>
   <v>       0.00500000 </v>
   <v>       0.00500000 </v>
   <v>       0.00500000 </v>
   <v>       0.00500000 </v>
   <v>       0.00500000 </v>
   <v>       0.00500000 </v>
   <v>       0.00500000 </v>
   <v>       0.00500000 </v>
   <v>       0.00500000 </v>
   <v>       0.00500000 </v>
   <v>       0.00500000 </v>
   <v>       0.00500000 </v>
   <v>       0.00500000 </v>
   <v>       0.00500000 </v>
   <v>       0.00500000 </v>
   <v>       0.00500000 </v>
   <v>       0.00500000 </v>
   <v>       0.00500000 </v>
   <v>       0.00500000 </v>
   <v>       0.00500000 </v>
   <v>       0.00500000 </v>
   <v>       0.00500000 </v>
   <v>       0.00500000 </v>
   <v>       0.00500000 </v>
   <v>       0.00500000 </v>
   <v>       0.00500000 </v>
   <v>       0.00500000 </v>
   <v>       0.00500000 </v>
   <v>       0.00500000 </v>
   <v>       0.00500000 </v>
   <v>       0.00500000 </v>
   <v>       0.00500000 </v>
   <v>       0.00500000 </v>
   <v>       0.00500000 </v>
   <v>       0.00500000 </v>
   <v>       0.00500000 </v>
   <v>       0.00500000 </v>
   <v>       0.00500000 </v>
   <v>       0.00500000 </v>
   <v>       0.00500000 </v>
   <v>       0.00500000 </v>
   <v>       0.00500000 </v>
   <v>       0.00500000 </v>
   <v>       0.00500000 </v>
   <v>       0.00500000 </v>
   <v>       0.00500000 </v>
   <v>       0.00500000 </v>
   <v>       0.00500000 </v>
   <v>       0.00500000 </v>
   <v>       0.00500000 </v>
   <v>       0.00500000 </v>
   <v>       0.00500000 </v>
   <v>       0.00500000 </v>
   <v>       0.00500000 </v>
   <v>       0.00500000 </v>
   <v>       0.00500000 </v>
   <v>       0.00500000 </v>
   <v>       0.00500000 </v>
   <v>       0.00500000 </v>
   <v>       0.00500000 </v>
   <v>       0.00500000 </v>
   <v>       0.00500000 </v>
   <v>       0.00500000 </v>
   <v>       0.00500000 </v>
   <v>       0.00500000 </v>
   <v>       0.00500000 </v>
   <v>       0.00500000 </v>
   <v>       0.00500000 </v>
   <v>       0.00500000 </v>
   <v>       0.00500000 </v>
   <v>       0.00500000 </v>
   <v>       0.00500000 </v>
   <v>       0.00500000 </v>
   <v>       0.00500000 </v>
   <v>       0.00500000 </v>
   <v>       0.00500000 </v>
   <v>       0.00500000 </v>
   <v>       0.00500000 </v>
   <v>       0.00500000 </v>
   <v>       0.00500000 </v>
   <v>       0.00500000 </v>
   <v>       0.00500000 </v>
   <v>       0.00500000 </v>
   <v>       0.00500000 </v>
   <v>       0.00500000 </v>
   <v>       0.00500000 </v>
   <v>       0.00500000 </v>
   <v>       0.00500000 </v>
   <v>       0.00500000 </v>
   <v>       0.00500000 </v>
   <v>       0.00500000 </v>
   <v>       0.00500000 </v>
   <v>       0.00500000 </v>
   <v>       0.00500000 </v>
   <v>       0.00500000 </v>
   <v>       0.00500000 </v>
   <v>       0.00500000 </v>
   <v>       0.00500000 </v>
   <v>       0.00500000 </v>
   <v>       0.00500000 </v>
   <v>       0.00500000 </v>
   <v>       0.00500000 </v>
   <v>       0.00500000 </v>
   <v>       0.00500000 </v>
   <v>       0.00500000 </v>
   <v>       0.00500000 </v>
   <v>       0.00500000 </v>
   <v>       0.00500000 </v>
   <v>       0.00500000 </v>
   <v>       0.00500000 </v>
   <v>       0.00500000 </v>
   <v>       0.00500000 </v>
   <v>       0.00500000 </v>
   <v>       0.00500000 </v>
   <v>       0.00500000 </v>
   <v>       0.00500000 </v>
   <v>       0.00500000 </v>
   <v>       0.00500000 </v>
   <v>       0.00500000 </v>
   <v>       0.00500000 </v>
   <v>       0.00500000 </v>
   <v>       0.00500000 </v>
   <v>       0.00500000 </v>
   <v>       0.00500000 </v>
   <v>       0.00500000 </v>
   <v>       0.00500000 </v>
   <v>       0.00500000 </v>
   <v>       0.00500000 </v>
   <v>       0.00500000 </v>
   <v>       0.00500000 </v>
   <v>       0.00500000 </v>
   <v>       0.00500000 </v>
   <v>       0.00500000 </v>
   <v>       0.00500000 </v>
   <v>       0.00500000 </v>
   <v>       0.00500000 </v>
   <v>       0.00500000 </v>
   <v>       0.00500000 </v>
   <v>       0.00500000 </v>
   <v>       0.00500000 </v>
   <v>       0.00500000 </v>
   <v>       0.00500000 </v>
   <v>       0.00500000 </v>
   <v>       0.00500000 </v>
   <v>       0.00500000 </v>
   <v>       0.00500000 </v>
   <v>       0.00500000 </v>
   <v>       0.00500000 </v>
   <v>       0.00500000 </v>
   <v>       0.00500000 </v>
   <v>       0.00500000 </v>
   <v>       0.00500000 </v>
   <v>       0.00500000 </v>
   <v>       0.00500000 </v>
   <v>       0.00500000 </v>
   <v>       0.00500000 </v>
   <v>       0.00500000 </v>
  </varray>
 </kpoints>
 <parameters>
  <separator name="general" >
   <i type="string" name="SYSTEM">Diamond si</i>
   <i type="logical" name="LCOMPAT"> F  </i>
  </separator>
  <separator name="electronic" >
   <i type="string" name="PREC">normal</i>
   <i name="ENMAX">    300.00000000</i>
   <i name="ENAUG">    322.06900000</i>
   <i name="EDIFF">      0.00001000</i>
   <i type="int" name="IALGO">    38</i>
   <i type="int" name="IWAVPR">    11</i>
   <i type="int" name="NBANDS">     8</i>
   <i name="NELECT">      8.00000000</i>
   <i type="int" name="TURBO">     0</i>
   <i type="int" name="IRESTART">     0</i>
   <i type="int" name="NREBOOT">     0</i>
   <i type="int" name="NMIN">     0</i>
   <i name="EREF">      0.00000000</i>
   <separator name="electronic smearing" >
    <i type="int" name="ISMEAR">     0</i>
    <i name="SIGMA">      0.10000000</i>
    <i name="KSPACING">      0.50000000</i>
    <i type="logical" name="KGAMMA"> T  </i>
   </separator>
   <separator name="electronic projectors" >
    <i type="logical" name="LREAL"> F  </i>
    <v name="ROPT">      0.00000000</v>
    <i type="int" name="LMAXPAW">  -100</i>
    <i type="int" name="LMAXMIX">     2</i>
    <i type="logical" name="NLSPLINE"> F  </i>
   </separator>
   <separator name="electronic startup" >
    <i type="int" name="ISTART">     0</i>
    <i type="int" name="ICHARG">     2</i>
    <i type="int" name="INIWAV">     1</i>
   </separator>
   <separator name="electronic spin" >
    <i type="int" name="ISPIN">     1</i>
    <i type="logical" name="LNONCOLLINEAR"> F  </i>
    <v name="MAGMOM">      1.00000000      1.00000000</v>
    <i name="NUPDOWN">     -1.00000000</i>
    <i type="logical" name="LSORBIT"> F  </i>
    <v name="SAXIS">      0.00000000      0.00000000      1.00000000</v>
    <i type="logical" name="LSPIRAL"> F  </i>
    <v name="QSPIRAL">      0.00000000      0.00000000      0.00000000</v>
    <i type="logical" name="LZEROZ"> F  </i>
   </separator>
   <separator name="electronic exchange-correlation" >
    <i type="logical" name="LASPH"> F  </i>
    <i type="logical" name="LMETAGGA"> F  </i>
   </separator>
   <separator name="electronic convergence" >
    <i type="int" name="NELM">    60</i>
    <i type="int" name="NELMDL">    -5</i>
    <i type="int" name="NELMIN">     2</i>
    <i name="ENINI">    300.00000000</i>
    <separator name="electronic convergence detail" >
     <i type="logical" name="LDIAG"> T  </i>
     <i type="logical" name="LSUBROT"> F  </i>
     <i name="WEIMIN">      0.00100000</i>
     <i name="EBREAK">      0.00000031</i>
     <i name="DEPER">      0.30000000</i>
     <i type="int" name="NRMM">     4</i>
     <i name="TIME">      0.40000000</i>
    </separator>
   </separator>
   <separator name="electronic mixer" >
    <i name="AMIX">      0.40000000</i>
    <i name="BMIX">      1.00000000</i>
    <i name="AMIN">      0.10000000</i>
    <i name="AMIX_MAG">      1.60000000</i>
    <i name="BMIX_MAG">      1.00000000</i>
    <separator name="electronic mixer details" >
     <i type="int" name="IMIX">     4</i>
     <i type="logical" name="MIXFIRST"> F  </i>
     <i type="int" name="MAXMIX">   -45</i>
     <i name="WC">    100.00000000</i>
     <i type="int" name="INIMIX">     1</i>
     <i type="int" name="MIXPRE">     1</i>
     <i type="int" name="MREMOVE">     5</i>
    </separator>
   </separator>
   <separator name="electronic dipolcorrection" >
    <i type="logical" name="LDIPOL"> F  </i>
    <i type="logical" name="LMONO"> F  </i>
    <i type="int" name="IDIPOL">     0</i>
    <i name="EPSILON">      1.00000000</i>
    <v name="DIPOL">   -100.00000000   -100.00000000   -100.00000000</v>
    <i name="EFIELD">      0.00000000</i>
   </separator>
  </separator>
  <separator name="grids" >
   <i type="int" name="NGX">    12</i>
   <i type="int" name="NGY">    12</i>
   <i type="int" name="NGZ">    12</i>
   <i type="int" name="NGXF">    24</i>
   <i type="int" name="NGYF">    24</i>
   <i type="int" name="NGZF">    24</i>
   <i type="logical" name="ADDGRID"> F  </i>
  </separator>
  <separator name="ionic" >
   <i type="int" name="NSW">    20</i>
   <i type="int" name="IBRION">     2</i>
   <i type="int" name="MDALGO">     0</i>
   <i type="int" name="ISIF">     3</i>
   <i name="PSTRESS">      0.00000000</i>
   <i name="EDIFFG">      0.02000000</i>
   <i type="int" name="NFREE">     1</i>
   <i name="POTIM">      0.50000000</i>
   <i name="SMASS">     -3.00000000</i>
   <i name="SCALEE">      1.00000000</i>
  </separator>
  <separator name="ionic md" >
   <i name="TEBEG">      0.00010000</i>
   <i name="TEEND">      0.00010000</i>
   <i type="int" name="NBLOCK">     1</i>
   <i type="int" name="KBLOCK">    20</i>
   <i type="int" name="NPACO">   256</i>
   <i name="APACO">     16.00000000</i>
  </separator>
  <separator name="symmetry" >
   <i type="int" name="ISYM">     2</i>
   <i name="SYMPREC">      0.00001000</i>
  </separator>
  <separator name="dos" >
   <i type="int" name="LORBIT">     0</i>
   <v name="RWIGS">     -1.00000000</v>
   <i type="int" name="NEDOS">   301</i>
   <i name="EMIN">     10.00000000</i>
   <i name="EMAX">    -10.00000000</i>
   <i name="EFERMI">      0.00000000</i>
  </separator>
  <separator name="writing" >
   <i type="int" name="NWRITE">     2</i>
   <i type="logical" name="LWAVE"> T  </i>
   <i type="logical" name="LDOWNSAMPLE"> F  </i>
   <i type="logical" name="LCHARG"> T  </i>
   <i type="logical" name="LPARD"> F  </i>
   <i type="logical" name="LVTOT"> F  </i>
   <i type="logical" name="LVHAR"> F  </i>
   <i type="logical" name="LELF"> F  </i>
   <i type="logical" name="LOPTICS"> F  </i>
   <v name="STM">      0.00000000      0.00000000      0.00000000      0.00000000      0.00000000      0.00000000      0.00000000</v>
  </separator>
  <separator name="performance" >
   <i type="int" name="NPAR">     4</i>
   <i type="int" name="NSIM">     4</i>
   <i type="int" name="NBLK">    -1</i>
   <i type="logical" name="LPLANE"> T  </i>
   <i type="logical" name="LSCALAPACK"> T  </i>
   <i type="logical" name="LSCAAWARE"> F  </i>
   <i type="logical" name="LSCALU"> F  </i>
   <i type="logical" name="LASYNC"> F  </i>
   <i type="logical" name="LORBITALREAL"> F  </i>
  </separator>
  <separator name="miscellaneous" >
   <i type="int" name="IDIOT">     3</i>
   <i type="int" name="ISPECIAL">     0</i>
   <i type="logical" name="LMUSIC"> F  </i>
   <v name="POMASS">     28.08500000</v>
   <v name="DARWINR">      0.00000000</v>
   <v name="DARWINV">      1.00000000</v>
   <i type="logical" name="LCORR"> T  </i>
  </separator>
  <i type="logical" name="GGA_COMPAT"> T  </i>
  <i type="logical" name="LBERRY"> F  </i>
  <i type="int" name="ICORELEVEL">     0</i>
  <i type="logical" name="LDAU"> F  </i>
  <i type="int" name="I_CONSTRAINED_M">     0</i>
  <separator name="electronic exchange-correlation" >
   <i type="string" name="GGA">--</i>
   <i type="int" name="VOSKOWN">     0</i>
   <i type="logical" name="LHFCALC"> F  </i>
   <i type="string" name="PRECFOCK"></i>
   <i type="logical" name="LSYMGRAD"> F  </i>
   <i type="logical" name="LHFONE"> F  </i>
   <i type="logical" name="LRHFCALC"> F  </i>
   <i type="logical" name="LTHOMAS"> F  </i>
   <i type="logical" name="LMODELHF"> F  </i>
   <i name="ENCUT4O">     -1.00000000</i>
   <i type="int" name="EXXOEP">     0</i>
   <i type="int" name="FOURORBIT">     0</i>
   <i name="AEXX">      0.00000000</i>
   <i name="HFALPHA">      0.00000000</i>
   <i name="MCALPHA">      0.00000000</i>
   <i name="ALDAX">      1.00000000</i>
   <i name="AGGAX">      1.00000000</i>
   <i name="ALDAC">      1.00000000</i>
   <i name="AGGAC">      1.00000000</i>
   <i type="int" name="NKREDX">     1</i>
   <i type="int" name="NKREDY">     1</i>
   <i type="int" name="NKREDZ">     1</i>
   <i type="logical" name="SHIFTRED"> F  </i>
   <i type="logical" name="ODDONLY"> F  </i>
   <i type="logical" name="EVENONLY"> F  </i>
   <i type="int" name="LMAXFOCK">     0</i>
   <i type="int" name="NMAXFOCKAE">     0</i>
   <i type="logical" name="LFOCKAEDFT"> F  </i>
   <i name="HFSCREEN">      0.00000000</i>
   <i name="HFSCREENC">      0.00000000</i>
   <i type="int" name="NBANDSGWLOW">     0</i>
  </separator>
  <separator name="vdW DFT" >
   <i type="logical" name="LUSE_VDW"> F  </i>
   <i name="Zab_VDW">     -0.84910000</i>
   <i name="PARAM1">      0.12340000</i>
   <i name="PARAM2">      1.00000000</i>
   <i name="PARAM3">      0.00000000</i>
  </separator>
  <separator name="model GW" >
   <i type="int" name="MODEL_GW">     0</i>
   <i name="MODEL_EPS0">      4.33694365</i>
   <i name="MODEL_ALPHA">      1.00000000</i>
  </separator>
  <separator name="linear response parameters" >
   <i type="logical" name="LEPSILON"> F  </i>
   <i type="logical" name="LRPA"> F  </i>
   <i type="logical" name="LNABLA"> F  </i>
   <i type="logical" name="LVEL"> F  </i>
   <i type="int" name="KINTER">     0</i>
   <i name="CSHIFT">      0.10000000</i>
   <i name="OMEGAMAX">     -1.00000000</i>
   <i name="DEG_THRESHOLD">      0.00200000</i>
   <i name="RTIME">     -0.10000000</i>
   <i name="WPLASMAI">      0.00000000</i>
   <v name="DFIELD">      0.00000000      0.00000000      0.00000000</v>
   <v name="WPLASMA">      0.00000000      0.00000000      0.00000000      0.00000000      0.00000000      0.00000000      0.00000000      0.00000000      0.00000000</v>
  </separator>
  <separator name="orbital magnetization" >
   <i type="logical" name="NUCIND"> F  </i>
   <v name="MAGPOS">      0.00000000      0.00000000      0.00000000</v>
   <i type="logical" name="LNICSALL"> T  </i>
   <i type="logical" name="ORBITALMAG"> F  </i>
   <i type="logical" name="LMAGBLOCH"> F  </i>
   <i type="logical" name="LCHIMAG"> F  </i>
   <i type="logical" name="LGAUGE"> T  </i>
   <i type="int" name="MAGATOM">     0</i>
   <v name="MAGDIPOL">      0.00000000      0.00000000      0.00000000</v>
   <v name="AVECCONST">      0.00000000      0.00000000      0.00000000</v>
  </separator>
  <separator name="response functions" >
   <i type="logical" name="LADDER"> F  </i>
   <i type="logical" name="LRPAFORCE"> F  </i>
   <i type="logical" name="LFXC"> F  </i>
   <i type="logical" name="LHARTREE"> T  </i>
   <i type="int" name="IBSE">     0</i>
   <v type="int" name="KPOINT">    -1     0     0     0</v>
   <i type="logical" name="LTCTE"> F  </i>
   <i type="logical" name="LTETE"> F  </i>
   <i type="logical" name="LTRIPLET"> F  </i>
   <i type="logical" name="LFXCEPS"> F  </i>
   <i type="logical" name="LFXHEG"> F  </i>
   <i type="int" name="NATURALO">     2</i>
   <i type="logical" name="L2ORDER"> F  </i>
   <i type="logical" name="LMP2LT"> F  </i>
   <i type="logical" name="LUSEW"> F  </i>
   <i name="ENCUTGW">     -2.00000000</i>
   <i name="ENCUTGWSOFT">     -2.00000000</i>
   <i name="ENCUTLF">     -1.00000000</i>
   <i type="int" name="LMAXMP2">    -1</i>
   <i name="SCISSOR">      0.00000000</i>
   <i type="int" name="NOMEGA">     0</i>
   <i type="int" name="NOMEGAR">     0</i>
   <i type="int" name="NBANDSGW">    -1</i>
   <i type="int" name="NBANDSO">    -1</i>
   <i type="int" name="NBANDSV">    -1</i>
   <i type="int" name="NELM">     1</i>
   <i type="int" name="NELMHF">     1</i>
   <i type="int" name="DIM">     3</i>
   <i type="int" name="ANTIRES">     0</i>
   <i name="OMEGAMAX">    -30.00000000</i>
   <i name="OMEGAMIN">    -30.00000000</i>
   <i name="OMEGATL">   -200.00000000</i>
   <i type="int" name="OMEGAGRID">   140</i>
   <i name="CSHIFT">     -0.10000000</i>
   <i type="logical" name="SELFENERGY"> F  </i>
   <i type="logical" name="LSPECTRAL"> F  </i>
   <i type="logical" name="LSPECTRALGW"> F  </i>
   <i type="logical" name="LSINGLES"> F  </i>
   <i type="logical" name="LFERMIGW"> F  </i>
   <i type="logical" name="ODDONLYGW"> F  </i>
   <i type="logical" name="EVENONLYGW"> F  </i>
   <i type="int" name="NKREDLFX">     1</i>
   <i type="int" name="NKREDLFY">     1</i>
   <i type="int" name="NKREDLFZ">     1</i>
   <i type="int" name="MAXMEM">  2800</i>
   <i type="int" name="TELESCOPE">     0</i>
   <i type="int" name="TAUPAR">     1</i>
   <i type="int" name="OMEGAPAR">    -1</i>
   <i name="LAMBDA">      1.00000000</i>
  </separator>
  <separator name="External order field" >
   <i name="OFIELD_KAPPA">      0.00000000</i>
   <v name="OFIELD_K">      0.00000000      0.00000000      0.00000000</v>
   <i name="OFIELD_Q6_NEAR">      0.00000000</i>
   <i name="OFIELD_Q6_FAR">      0.00000000</i>
   <i name="OFIELD_A">      0.00000000</i>
  </separator>
 </parameters>
 <atominfo>
  <atoms>       2 </atoms>
  <types>       1 </types>
  <array name="atoms" >
   <dimension dim="1">ion</dimension>
   <field type="string">element</field>
   <field type="int">atomtype</field>
   <set>
    <rc><c>Si</c><c>   1</c></rc>
    <rc><c>Si</c><c>   1</c></rc>
   </set>
  </array>
  <array name="atomtypes" >
   <dimension dim="1">type</dimension>
   <field type="int">atomspertype</field>
   <field type="string">element</field>
   <field>mass</field>
   <field>valence</field>
   <field type="string">pseudopotential</field>
   <set>
    <rc><c>   2</c><c>Si</c><c>     28.08500000</c><c>      4.00000000</c><c>  PAW_PBE Si 05Jan2001                  </c></rc>
   </set>
  </array>
 </atominfo>
 <structure name="initialpos" >
  <crystal>
   <varray name="basis" >
    <v>       0.00000000      -1.93350000      -1.93350000 </v>
    <v>       1.93350000       0.00000000      -1.93350000 </v>
    <v>       1.93350000      -1.93350000       0.00000000 </v>
   </varray>
   <i name="volume">     14.45647884 </i>
   <varray name="rec_basis" >
    <v>      -0.25859840      -0.25859840      -0.25859840 </v>
    <v>       0.25859840       0.25859840      -0.25859840 </v>
    <v>       0.25859840      -0.25859840       0.25859840 </v>
   </varray>
  </crystal>
  <varray name="positions" >
   <v>       0.00000000       0.00000000       0.00000000 </v>
   <v>       0.25000000       0.25000000       0.25000000 </v>
  </varray>
 </structure>
 <calculation>
  <scstep>
   <time name="dav">    0.90    0.23</time>
   <time name="total">    0.91    0.32</time>
   <energy>
    <i name="alphaZ">      9.31433751 </i>
    <i name="ewald">   -320.94645471 </i>
    <i name="hartreedc">     -1.33290387 </i>
    <i name="XCdc">    -13.61690588 </i>
    <i name="pawpsdc">    176.24759923 </i>
    <i name="pawaedc">   -141.06103558 </i>
    <i name="eentropy">     -0.00347520 </i>
    <i name="bandstr">    106.84819972 </i>
    <i name="atom">    206.12968587 </i>
    <i name="e_fr_energy">     21.57904710 </i>
    <i name="e_wo_entrp">     21.58252229 </i>
    <i name="e_0_energy">     21.58078469 </i>
   </energy>
  </scstep>
  <scstep>
   <time name="dav">    1.67    0.42</time>
   <time name="total">    1.68    0.42</time>
   <energy>
    <i name="e_fr_energy">     10.51386645 </i>
    <i name="e_wo_entrp">     10.51887369 </i>
    <i name="e_0_energy">     10.51637007 </i>
   </energy>
  </scstep>
  <scstep>
   <time name="dav">    0.95    0.24</time>
   <time name="total">    0.95    0.24</time>
   <energy>
    <i name="e_fr_energy">     10.43363894 </i>
    <i name="e_wo_entrp">     10.43861347 </i>
    <i name="e_0_energy">     10.43612621 </i>
   </energy>
  </scstep>
  <scstep>
   <time name="dav">    1.51    0.38</time>
   <time name="total">    1.52    0.38</time>
   <energy>
    <i name="e_fr_energy">     10.43340852 </i>
    <i name="e_wo_entrp">     10.43838375 </i>
    <i name="e_0_energy">     10.43589614 </i>
   </energy>
  </scstep>
  <scstep>
   <time name="dav">    0.94    0.24</time>
   <time name="total">    0.98    0.24</time>
   <energy>
    <i name="e_fr_energy">     10.43340848 </i>
    <i name="e_wo_entrp">     10.43838371 </i>
    <i name="e_0_energy">     10.43589609 </i>
   </energy>
  </scstep>
  <scstep>
   <time name="dav">    0.86    0.21</time>
   <time name="total">    0.90    0.23</time>
   <energy>
    <i name="e_fr_energy">     11.25643021 </i>
    <i name="e_wo_entrp">     11.26239996 </i>
    <i name="e_0_energy">     11.25941509 </i>
   </energy>
  </scstep>
  <scstep>
   <time name="dav">    0.95    0.24</time>
   <time name="total">    1.00    0.25</time>
   <energy>
    <i name="e_fr_energy">     11.54653643 </i>
    <i name="e_wo_entrp">     11.55610474 </i>
    <i name="e_0_energy">     11.55132058 </i>
   </energy>
  </scstep>
  <scstep>
   <time name="dav">    0.89    0.22</time>
   <time name="total">    0.94    0.23</time>
   <energy>
    <i name="e_fr_energy">     11.55175181 </i>
    <i name="e_wo_entrp">     11.56103484 </i>
    <i name="e_0_energy">     11.55639332 </i>
   </energy>
  </scstep>
  <scstep>
   <time name="dav">    1.32    0.33</time>
   <time name="total">    1.37    0.34</time>
   <energy>
    <i name="e_fr_energy">     11.55189451 </i>
    <i name="e_wo_entrp">     11.56122330 </i>
    <i name="e_0_energy">     11.55655890 </i>
   </energy>
  </scstep>
  <scstep>
   <time name="dav">    0.72    0.18</time>
   <time name="total">    0.77    0.19</time>
   <energy>
    <i name="e_fr_energy">     11.55194539 </i>
    <i name="e_wo_entrp">     11.56125815 </i>
    <i name="e_0_energy">     11.55660177 </i>
   </energy>
  </scstep>
  <scstep>
   <time name="dav">    0.62    0.15</time>
   <time name="total">    0.64    0.16</time>
   <energy>
    <i name="alphaZ">      9.31433751 </i>
    <i name="ewald">   -320.94645471 </i>
    <i name="hartreedc">     -3.71050191 </i>
    <i name="XCdc">    -12.59539180 </i>
    <i name="pawpsdc">   5440.37104324 </i>
    <i name="pawaedc">  -5407.36813202 </i>
    <i name="eentropy">     -0.00931016 </i>
    <i name="bandstr">    100.36666939 </i>
    <i name="atom">    206.12968587 </i>
    <i name="e_fr_energy">     11.55194542 </i>
    <i name="e_wo_entrp">     11.56125557 </i>
    <i name="e_0_energy">     11.55660049 </i>
   </energy>
  </scstep>
  <structure>
   <crystal>
    <varray name="basis" >
     <v>       0.00000000      -1.93350000      -1.93350000 </v>
     <v>       1.93350000       0.00000000      -1.93350000 </v>
     <v>       1.93350000      -1.93350000       0.00000000 </v>
    </varray>
    <i name="volume">     14.45647884 </i>
    <varray name="rec_basis" >
     <v>      -0.25859840      -0.25859840      -0.25859840 </v>
     <v>       0.25859840       0.25859840      -0.25859840 </v>
     <v>       0.25859840      -0.25859840       0.25859840 </v>
    </varray>
   </crystal>
   <varray name="positions" >
    <v>       0.00000000       0.00000000       0.00000000 </v>
    <v>       0.25000000       0.25000000       0.25000000 </v>
   </varray>
  </structure>
  <varray name="forces" >
   <v>       0.00000000      -0.00000000      -0.00000000 </v>
   <v>      -0.00000000       0.00000000       0.00000000 </v>
  </varray>
  <varray name="stress" >
   <v>    6191.37661651      -0.00000000       0.00000000 </v>
   <v>      -0.00000000    6191.37661651       0.00000000 </v>
   <v>       0.00000000       0.00000000    6191.37661651 </v>
  </varray>
  <energy>
   <i name="e_fr_energy">     11.55194542 </i>
   <i name="e_wo_entrp">     11.55660049 </i>
   <i name="e_0_energy">     -0.00931016 </i>
  </energy>
  <time name="totalsc">   12.44    3.40</time>
 </calculation>
 <calculation>
  <scstep>
   <time name="dav">    1.69    0.42</time>
   <time name="total">    1.74    0.48</time>
   <energy>
    <i name="alphaZ">      0.71997135 </i>
    <i name="ewald">   -136.71631050 </i>
    <i name="hartreedc">     -1.58059588 </i>
    <i name="XCdc">    -25.03437245 </i>
    <i name="pawpsdc">   5440.72379785 </i>
    <i name="pawaedc">  -5407.72097868 </i>
    <i name="eentropy">     -0.02083064 </i>
    <i name="bandstr">   -104.33091843 </i>
    <i name="atom">    206.12968587 </i>
    <i name="e_fr_energy">    -27.83055153 </i>
    <i name="e_wo_entrp">    -27.80972088 </i>
    <i name="e_0_energy">    -27.82013620 </i>
   </energy>
  </scstep>
  <scstep>
   <time name="dav">    0.85    0.21</time>
   <time name="total">    0.91    0.23</time>
   <energy>
    <i name="e_fr_energy">    -17.11976670 </i>
    <i name="e_wo_entrp">    -17.08312382 </i>
    <i name="e_0_energy">    -17.10144526 </i>
   </energy>
  </scstep>
  <scstep>
   <time name="dav">    0.79    0.20</time>
   <time name="total">    0.85    0.21</time>
   <energy>
    <i name="e_fr_energy">     -3.35605639 </i>
    <i name="e_wo_entrp">     -3.32604687 </i>
    <i name="e_0_energy">     -3.34105163 </i>
   </energy>
  </scstep>
  <scstep>
   <time name="dav">    0.95    0.24</time>
   <time name="total">    1.01    0.25</time>
   <energy>
    <i name="e_fr_energy">     -1.86398343 </i>
    <i name="e_wo_entrp">     -1.84077231 </i>
    <i name="e_0_energy">     -1.85237787 </i>
   </energy>
  </scstep>
  <scstep>
   <time name="dav">    0.83    0.21</time>
   <time name="total">    0.89    0.22</time>
   <energy>
    <i name="e_fr_energy">     -2.40714627 </i>
    <i name="e_wo_entrp">     -2.38044278 </i>
    <i name="e_0_energy">     -2.39379453 </i>
   </energy>
  </scstep>
  <scstep>
   <time name="dav">    0.83    0.21</time>
   <time name="total">    0.89    0.22</time>
   <energy>
    <i name="e_fr_energy">     -2.22468350 </i>
    <i name="e_wo_entrp">     -2.19996052 </i>
    <i name="e_0_energy">     -2.21232201 </i>
   </energy>
  </scstep>
  <scstep>
   <time name="dav">    0.79    0.20</time>
   <time name="total">    0.85    0.21</time>
   <energy>
    <i name="e_fr_energy">     -2.23282006 </i>
    <i name="e_wo_entrp">     -2.20855883 </i>
    <i name="e_0_energy">     -2.22068945 </i>
   </energy>
  </scstep>
  <scstep>
   <time name="dav">    0.83    0.21</time>
   <time name="total">    0.89    0.22</time>
   <energy>
    <i name="e_fr_energy">     -2.23157223 </i>
    <i name="e_wo_entrp">     -2.20753845 </i>
    <i name="e_0_energy">     -2.21955534 </i>
   </energy>
  </scstep>
  <scstep>
   <time name="dav">    0.81    0.20</time>
   <time name="total">    0.87    0.22</time>
   <energy>
    <i name="e_fr_energy">     -2.23161326 </i>
    <i name="e_wo_entrp">     -2.20756158 </i>
    <i name="e_0_energy">     -2.21958742 </i>
   </energy>
  </scstep>
  <scstep>
   <time name="dav">    0.83    0.21</time>
   <time name="total">    0.89    0.22</time>
   <energy>
    <i name="e_fr_energy">     -2.23158117 </i>
    <i name="e_wo_entrp">     -2.20752918 </i>
    <i name="e_0_energy">     -2.21955518 </i>
   </energy>
  </scstep>
  <scstep>
   <time name="dav">    0.46    0.11</time>
   <time name="total">    0.49    0.12</time>
   <energy>
    <i name="alphaZ">      0.71997135 </i>
    <i name="ewald">   -136.71631050 </i>
    <i name="hartreedc">    -40.14573268 </i>
    <i name="XCdc">    -22.35423084 </i>
    <i name="pawpsdc">    915.60154672 </i>
    <i name="pawaedc">   -880.16052355 </i>
    <i name="eentropy">     -0.02405383 </i>
    <i name="bandstr">    -45.28193525 </i>
    <i name="atom">    206.12968587 </i>
    <i name="e_fr_energy">     -2.23158271 </i>
    <i name="e_wo_entrp">     -2.20752888 </i>
    <i name="e_0_energy">     -2.21955579 </i>
   </energy>
  </scstep>
  <structure>
   <crystal>
    <varray name="basis" >
     <v>      -0.00000000      -4.53896077      -4.53896077 </v>
     <v>       4.53896077      -0.00000000      -4.53896077 </v>
     <v>       4.53896077      -4.53896077       0.00000000 </v>
    </varray>
    <i name="volume">    187.02483643 </i>
    <varray name="rec_basis" >
     <v>      -0.11015737      -0.11015737      -0.11015737 </v>
     <v>       0.11015737       0.11015737      -0.11015737 </v>
     <v>       0.11015737      -0.11015737       0.11015737 </v>
    </varray>
   </crystal>
   <varray name="positions" >
    <v>       0.00000000      -0.00000000       0.00000000 </v>
    <v>       0.25000000       0.25000000       0.25000000 </v>
   </varray>
  </structure>
  <varray name="forces" >
   <v>      -0.00000000       0.00000000      -0.00000000 </v>
   <v>       0.00000000      -0.00000000       0.00000000 </v>
  </varray>
  <varray name="stress" >
   <v>     -58.80222934      -0.00000000       0.00000000 </v>
   <v>       0.00000000     -58.80222934      -0.00000000 </v>
   <v>      -0.00000000      -0.00000000     -58.80222934 </v>
  </varray>
  <energy>
   <i name="e_fr_energy">     -2.23158271 </i>
   <i name="e_wo_entrp">     -2.21955579 </i>
   <i name="e_0_energy">     -0.02405383 </i>
  </energy>
  <time name="totalsc">   11.01    3.01</time>
 </calculation>
 <calculation>
  <scstep>
   <time name="dav">    0.81    0.20</time>
   <time name="total">    0.86    0.26</time>
   <energy>
    <i name="alphaZ">      0.87465136 </i>
    <i name="ewald">   -145.87927112 </i>
    <i name="hartreedc">    -42.84119551 </i>
    <i name="XCdc">    -21.65736073 </i>
    <i name="pawpsdc">    915.27129344 </i>
    <i name="pawaedc">   -879.83035939 </i>
    <i name="eentropy">     -0.01534273 </i>
    <i name="bandstr">    -35.95847790 </i>
    <i name="atom">    206.12968587 </i>
    <i name="e_fr_energy">     -3.90637670 </i>
    <i name="e_wo_entrp">     -3.89103397 </i>
    <i name="e_0_energy">     -3.89870533 </i>
   </energy>
  </scstep>
  <scstep>
   <time name="dav">    0.79    0.20</time>
   <time name="total">    0.84    0.21</time>
   <energy>
    <i name="e_fr_energy">     -3.67324564 </i>
    <i name="e_wo_entrp">     -3.65710335 </i>
    <i name="e_0_energy">     -3.66517450 </i>
   </energy>
  </scstep>
  <scstep>
   <time name="dav">    0.81    0.20</time>
   <time name="total">    0.87    0.22</time>
   <energy>
    <i name="e_fr_energy">     -3.54806364 </i>
    <i name="e_wo_entrp">     -3.53083230 </i>
    <i name="e_0_energy">     -3.53944797 </i>
   </energy>
  </scstep>
  <scstep>
   <time name="dav">    0.82    0.21</time>
   <time name="total">    0.88    0.22</time>
   <energy>
    <i name="e_fr_energy">     -3.54732468 </i>
    <i name="e_wo_entrp">     -3.53010065 </i>
    <i name="e_0_energy">     -3.53871267 </i>
   </energy>
  </scstep>
  <scstep>
   <time name="dav">    1.05    0.26</time>
   <time name="total">    1.10    0.28</time>
   <energy>
    <i name="e_fr_energy">     -3.54652873 </i>
    <i name="e_wo_entrp">     -3.52925184 </i>
    <i name="e_0_energy">     -3.53789028 </i>
   </energy>
  </scstep>
  <scstep>
   <time name="dav">    0.63    0.16</time>
   <time name="total">    0.69    0.17</time>
   <energy>
    <i name="e_fr_energy">     -3.54654569 </i>
    <i name="e_wo_entrp">     -3.52926929 </i>
    <i name="e_0_energy">     -3.53790749 </i>
   </energy>
  </scstep>
  <scstep>
   <time name="dav">    0.78    0.19</time>
   <time name="total">    0.81    0.20</time>
   <energy>
    <i name="alphaZ">      0.87465136 </i>
    <i name="ewald">   -145.87927112 </i>
    <i name="hartreedc">    -36.41598427 </i>
    <i name="XCdc">    -22.06507577 </i>
    <i name="pawpsdc">    855.92971693 </i>
    <i name="pawaedc">   -820.52534085 </i>
    <i name="eentropy">     -0.01728026 </i>
    <i name="bandstr">    -41.57764860 </i>
    <i name="atom">    206.12968587 </i>
    <i name="e_fr_energy">     -3.54654670 </i>
    <i name="e_wo_entrp">     -3.52926643 </i>
    <i name="e_0_energy">     -3.53790657 </i>
   </energy>
  </scstep>
  <structure>
   <crystal>
    <varray name="basis" >
     <v>      -0.00000000      -4.25385982      -4.25385982 </v>
     <v>       4.25385982      -0.00000000      -4.25385982 </v>
     <v>       4.25385982      -4.25385982       0.00000000 </v>
    </varray>
    <i name="volume">    153.94993817 </i>
    <varray name="rec_basis" >
     <v>      -0.11754031      -0.11754031      -0.11754031 </v>
     <v>       0.11754031       0.11754031      -0.11754031 </v>
     <v>       0.11754031      -0.11754031       0.11754031 </v>
    </varray>
   </crystal>
   <varray name="positions" >
    <v>       0.00000000      -0.00000000       0.00000000 </v>
    <v>       0.25000000       0.25000000       0.25000000 </v>
   </varray>
  </structure>
  <varray name="forces" >
   <v>       0.00000000      -0.00000000      -0.00000000 </v>
   <v>      -0.00000000       0.00000000       0.00000000 </v>
  </varray>
  <varray name="stress" >
   <v>     -69.80853773       0.00000000      -0.00000000 </v>
   <v>      -0.00000000     -69.80853773      -0.00000000 </v>
   <v>      -0.00000000      -0.00000000     -69.80853773 </v>
  </varray>
  <energy>
   <i name="e_fr_energy">     -3.54654670 </i>
   <i name="e_wo_entrp">     -3.53790657 </i>
   <i name="e_0_energy">     -0.01728026 </i>
  </energy>
  <time name="totalsc">    6.81    1.95</time>
 </calculation>
 <calculation>
  <scstep>
   <time name="dav">    0.88    0.22</time>
   <time name="total">    0.93    0.28</time>
   <energy>
    <i name="alphaZ">      1.04794482 </i>
    <i name="ewald">   -154.93923152 </i>
    <i name="hartreedc">    -38.67503489 </i>
    <i name="XCdc">    -21.40333408 </i>
    <i name="pawpsdc">    855.87119191 </i>
    <i name="pawaedc">   -820.46671625 </i>
    <i name="eentropy">     -0.01207081 </i>
    <i name="bandstr">    -32.61848140 </i>
    <i name="atom">    206.12968587 </i>
    <i name="e_fr_energy">     -5.06604634 </i>
    <i name="e_wo_entrp">     -5.05397552 </i>
    <i name="e_0_energy">     -5.06001093 </i>
   </energy>
  </scstep>
  <scstep>
   <time name="dav">    0.85    0.21</time>
   <time name="total">    0.90    0.23</time>
   <energy>
    <i name="e_fr_energy">     -4.86428440 </i>
    <i name="e_wo_entrp">     -4.85163118 </i>
    <i name="e_0_energy">     -4.85795779 </i>
   </energy>
  </scstep>
  <scstep>
   <time name="dav">    0.80    0.20</time>
   <time name="total">    0.85    0.21</time>
   <energy>
    <i name="e_fr_energy">     -4.75599805 </i>
    <i name="e_wo_entrp">     -4.74256768 </i>
    <i name="e_0_energy">     -4.74928287 </i>
   </energy>
  </scstep>
  <scstep>
   <time name="dav">    0.86    0.22</time>
   <time name="total">    0.92    0.23</time>
   <energy>
    <i name="e_fr_energy">     -4.75594392 </i>
    <i name="e_wo_entrp">     -4.74251564 </i>
    <i name="e_0_energy">     -4.74922978 </i>
   </energy>
  </scstep>
  <scstep>
   <time name="dav">    0.93    0.23</time>
   <time name="total">    0.98    0.24</time>
   <energy>
    <i name="e_fr_energy">     -4.75550815 </i>
    <i name="e_wo_entrp">     -4.74207771 </i>
    <i name="e_0_energy">     -4.74879293 </i>
   </energy>
  </scstep>
  <scstep>
   <time name="dav">    0.79    0.20</time>
   <time name="total">    0.84    0.21</time>
   <energy>
    <i name="e_fr_energy">     -4.74289617 </i>
    <i name="e_wo_entrp">     -4.72949973 </i>
    <i name="e_0_energy">     -4.73619795 </i>
   </energy>
  </scstep>
  <scstep>
   <time name="dav">    0.80    0.20</time>
   <time name="total">    0.86    0.22</time>
   <energy>
    <i name="e_fr_energy">     -4.75335168 </i>
    <i name="e_wo_entrp">     -4.73991677 </i>
    <i name="e_0_energy">     -4.74663423 </i>
   </energy>
  </scstep>
  <scstep>
   <time name="dav">    1.00    0.25</time>
   <time name="total">    1.05    0.26</time>
   <energy>
    <i name="e_fr_energy">     -4.75481402 </i>
    <i name="e_wo_entrp">     -4.74137062 </i>
    <i name="e_0_energy">     -4.74809232 </i>
   </energy>
  </scstep>
  <scstep>
   <time name="dav">    0.79    0.20</time>
   <time name="total">    0.84    0.21</time>
   <energy>
    <i name="e_fr_energy">     -4.75550811 </i>
    <i name="e_wo_entrp">     -4.74206056 </i>
    <i name="e_0_energy">     -4.74878434 </i>
   </energy>
  </scstep>
  <scstep>
   <time name="dav">    0.78    0.20</time>
   <time name="total">    0.84    0.21</time>
   <energy>
    <i name="e_fr_energy">     -4.75562672 </i>
    <i name="e_wo_entrp">     -4.74217725 </i>
    <i name="e_0_energy">     -4.74890198 </i>
   </energy>
  </scstep>
  <scstep>
   <time name="dav">    0.44    0.11</time>
   <time name="total">    0.47    0.12</time>
   <energy>
    <i name="alphaZ">      1.04794482 </i>
    <i name="ewald">   -154.93923152 </i>
    <i name="hartreedc">    -32.93387508 </i>
    <i name="XCdc">    -21.74433636 </i>
    <i name="pawpsdc">    770.72722521 </i>
    <i name="pawaedc">   -735.35240411 </i>
    <i name="eentropy">     -0.01344984 </i>
    <i name="bandstr">    -37.67718674 </i>
    <i name="atom">    206.12968587 </i>
    <i name="e_fr_energy">     -4.75562774 </i>
    <i name="e_wo_entrp">     -4.74217790 </i>
    <i name="e_0_energy">     -4.74890282 </i>
   </energy>
  </scstep>
  <structure>
   <crystal>
    <varray name="basis" >
     <v>      -0.00000000      -4.00511842      -4.00511842 </v>
     <v>       4.00511842      -0.00000000      -4.00511842 </v>
     <v>       4.00511842      -4.00511842       0.00000000 </v>
    </varray>
    <i name="volume">    128.49199738 </i>
    <varray name="rec_basis" >
     <v>      -0.12484025      -0.12484025      -0.12484025 </v>
     <v>       0.12484025       0.12484025      -0.12484025 </v>
     <v>       0.12484025      -0.12484025       0.12484025 </v>
    </varray>
   </crystal>
   <varray name="positions" >
    <v>       0.00000000      -0.00000000       0.00000000 </v>
    <v>       0.25000000       0.25000000       0.25000000 </v>
   </varray>
  </structure>
  <varray name="forces" >
   <v>      -0.00000000       0.00000000       0.00000000 </v>
   <v>       0.00000000      -0.00000000      -0.00000000 </v>
  </varray>
  <varray name="stress" >
   <v>     -83.63783259      -0.00000000       0.00000000 </v>
   <v>       0.00000000     -83.63783259       0.00000000 </v>
   <v>      -0.00000000      -0.00000000     -83.63783259 </v>
  </varray>
  <energy>
   <i name="e_fr_energy">     -4.75562774 </i>
   <i name="e_wo_entrp">     -4.74890282 </i>
   <i name="e_0_energy">     -0.01344984 </i>
  </energy>
  <time name="totalsc">    9.87    2.82</time>
 </calculation>
 <calculation>
  <scstep>
   <time name="dav">    1.13    0.28</time>
   <time name="total">    1.17    0.34</time>
   <energy>
    <i name="alphaZ">      2.57168768 </i>
    <i name="ewald">   -208.98799224 </i>
    <i name="hartreedc">    -44.42174830 </i>
    <i name="XCdc">    -18.68909377 </i>
    <i name="pawpsdc">    770.55418741 </i>
    <i name="pawaedc">   -735.17949359 </i>
    <i name="eentropy">     -0.00885889 </i>
    <i name="bandstr">     10.34255409 </i>
    <i name="atom">    206.12968587 </i>
    <i name="e_fr_energy">    -17.68907174 </i>
    <i name="e_wo_entrp">    -17.68021285 </i>
    <i name="e_0_energy">    -17.68464229 </i>
   </energy>
  </scstep>
  <scstep>
   <time name="dav">    0.79    0.20</time>
   <time name="total">    0.84    0.21</time>
   <energy>
    <i name="e_fr_energy">    -12.63924562 </i>
    <i name="e_wo_entrp">    -12.63803953 </i>
    <i name="e_0_energy">    -12.63864257 </i>
   </energy>
  </scstep>
  <scstep>
   <time name="dav">    0.90    0.23</time>
   <time name="total">    0.95    0.24</time>
   <energy>
    <i name="e_fr_energy">    -10.30301099 </i>
    <i name="e_wo_entrp">    -10.30301080 </i>
    <i name="e_0_energy">    -10.30301089 </i>
   </energy>
  </scstep>
  <scstep>
   <time name="dav">    1.24    0.31</time>
   <time name="total">    1.28    0.32</time>
   <energy>
    <i name="e_fr_energy">    -10.24357167 </i>
    <i name="e_wo_entrp">    -10.24356946 </i>
    <i name="e_0_energy">    -10.24357057 </i>
   </energy>
  </scstep>
  <scstep>
   <time name="dav">    0.84    0.21</time>
   <time name="total">    0.89    0.22</time>
   <energy>
    <i name="e_fr_energy">    -10.24210296 </i>
    <i name="e_wo_entrp">    -10.24210059 </i>
    <i name="e_0_energy">    -10.24210177 </i>
   </energy>
  </scstep>
  <scstep>
   <time name="dav">    1.13    0.28</time>
   <time name="total">    1.16    0.29</time>
   <energy>
    <i name="alphaZ">      2.57168768 </i>
    <i name="ewald">   -208.98799224 </i>
    <i name="hartreedc">    -18.44656691 </i>
    <i name="XCdc">    -19.05813960 </i>
    <i name="pawpsdc">   1025.29604602 </i>
    <i name="pawaedc">   -990.15498654 </i>
    <i name="eentropy">     -0.00000247 </i>
    <i name="bandstr">     -7.59182565 </i>
    <i name="atom">    206.12968587 </i>
    <i name="e_fr_energy">    -10.24209384 </i>
    <i name="e_wo_entrp">    -10.24209137 </i>
    <i name="e_0_energy">    -10.24209260 </i>
   </energy>
  </scstep>
  <structure>
   <crystal>
    <varray name="basis" >
     <v>      -0.00000000      -2.96930921      -2.96930921 </v>
     <v>       2.96930921      -0.00000000      -2.96930921 </v>
     <v>       2.96930921      -2.96930921       0.00000000 </v>
    </varray>
    <i name="volume">     52.35959417 </i>
    <varray name="rec_basis" >
     <v>      -0.16838933      -0.16838933      -0.16838933 </v>
     <v>       0.16838933       0.16838933      -0.16838933 </v>
     <v>       0.16838933      -0.16838933       0.16838933 </v>
    </varray>
   </crystal>
   <varray name="positions" >
    <v>       0.00000000      -0.00000000       0.00000000 </v>
    <v>       0.25000000       0.25000000       0.25000000 </v>
   </varray>
  </structure>
  <varray name="forces" >
   <v>      -0.00000000       0.00000000       0.00000000 </v>
   <v>       0.00000000      -0.00000000      -0.00000000 </v>
  </varray>
  <varray name="stress" >
   <v>    -137.47723317       0.00000000       0.00000000 </v>
   <v>       0.00000000    -137.47723317      -0.00000000 </v>
   <v>       0.00000000       0.00000000    -137.47723317 </v>
  </varray>
  <energy>
   <i name="e_fr_energy">    -10.24209384 </i>
   <i name="e_wo_entrp">    -10.24209260 </i>
   <i name="e_0_energy">     -0.00000247 </i>
  </energy>
  <time name="totalsc">    7.05    2.02</time>
 </calculation>
 <calculation>
  <scstep>
   <time name="dav">    0.98    0.25</time>
   <time name="total">    1.02    0.30</time>
   <energy>
    <i name="alphaZ">      4.57024527 </i>
    <i name="ewald">   -253.14057455 </i>
    <i name="hartreedc">    -22.32555606 </i>
    <i name="XCdc">    -16.53138236 </i>
    <i name="pawpsdc">   1025.09440040 </i>
    <i name="pawaedc">   -989.94953612 </i>
    <i name="eentropy">     -0.00385000 </i>
    <i name="bandstr">     34.40596553 </i>
    <i name="atom">    206.12968587 </i>
    <i name="e_fr_energy">    -11.75060202 </i>
    <i name="e_wo_entrp">    -11.74675202 </i>
    <i name="e_0_energy">    -11.74867702 </i>
   </energy>
  </scstep>
  <scstep>
   <time name="dav">    1.11    0.28</time>
   <time name="total">    1.16    0.29</time>
   <energy>
    <i name="e_fr_energy">    -10.19558371 </i>
    <i name="e_wo_entrp">    -10.19057690 </i>
    <i name="e_0_energy">    -10.19308031 </i>
   </energy>
  </scstep>
  <scstep>
   <time name="dav">    0.89    0.22</time>
   <time name="total">    0.93    0.23</time>
   <energy>
    <i name="e_fr_energy">     -9.47940368 </i>
    <i name="e_wo_entrp">     -9.46904537 </i>
    <i name="e_0_energy">     -9.47422452 </i>
   </energy>
  </scstep>
  <scstep>
   <time name="dav">    0.88    0.22</time>
   <time name="total">    0.92    0.23</time>
   <energy>
    <i name="e_fr_energy">     -9.47152344 </i>
    <i name="e_wo_entrp">     -9.46002254 </i>
    <i name="e_0_energy">     -9.46577299 </i>
   </energy>
  </scstep>
  <scstep>
   <time name="dav">    1.03    0.26</time>
   <time name="total">    1.08    0.27</time>
   <energy>
    <i name="e_fr_energy">     -9.46290975 </i>
    <i name="e_wo_entrp">     -9.45149495 </i>
    <i name="e_0_energy">     -9.45720235 </i>
   </energy>
  </scstep>
  <scstep>
   <time name="dav">    1.06    0.27</time>
   <time name="total">    1.11    0.28</time>
   <energy>
    <i name="e_fr_energy">     -9.46275504 </i>
    <i name="e_wo_entrp">     -9.45131243 </i>
    <i name="e_0_energy">     -9.45703374 </i>
   </energy>
  </scstep>
  <scstep>
   <time name="dav">    0.94    0.24</time>
   <time name="total">    0.99    0.25</time>
   <energy>
    <i name="e_fr_energy">     -9.46273397 </i>
    <i name="e_wo_entrp">     -9.45126720 </i>
    <i name="e_0_energy">     -9.45700058 </i>
   </energy>
  </scstep>
  <scstep>
   <time name="dav">    0.53    0.13</time>
   <time name="total">    0.55    0.14</time>
   <energy>
    <i name="alphaZ">      4.57024527 </i>
    <i name="ewald">   -253.14057455 </i>
    <i name="hartreedc">    -11.18303711 </i>
    <i name="XCdc">    -16.46101840 </i>
    <i name="pawpsdc">   2583.67130488 </i>
    <i name="pawaedc">  -2549.07968398 </i>
    <i name="eentropy">     -0.01146515 </i>
    <i name="bandstr">     26.04180993 </i>
    <i name="atom">    206.12968587 </i>
    <i name="e_fr_energy">     -9.46273323 </i>
    <i name="e_wo_entrp">     -9.45126808 </i>
    <i name="e_0_energy">     -9.45700066 </i>
   </energy>
  </scstep>
  <structure>
   <crystal>
    <varray name="basis" >
     <v>      -0.00000000      -2.45140461      -2.45140461 </v>
     <v>       2.45140461      -0.00000000      -2.45140461 </v>
     <v>       2.45140461      -2.45140461       0.00000000 </v>
    </varray>
    <i name="volume">     29.46286586 </i>
    <varray name="rec_basis" >
     <v>      -0.20396470      -0.20396470      -0.20396470 </v>
     <v>       0.20396470       0.20396470      -0.20396470 </v>
     <v>       0.20396470      -0.20396470       0.20396470 </v>
    </varray>
   </crystal>
   <varray name="positions" >
    <v>       0.00000000      -0.00000000       0.00000000 </v>
    <v>       0.25000000       0.25000000       0.25000000 </v>
   </varray>
  </structure>
  <varray name="forces" >
   <v>       0.00000000      -0.00000000      -0.00000000 </v>
   <v>      -0.00000000       0.00000000       0.00000000 </v>
  </varray>
  <varray name="stress" >
   <v>     536.81513556      -0.00000000      -0.00000000 </v>
   <v>       0.00000000     536.81513556       0.00000000 </v>
   <v>       0.00000000      -0.00000000     536.81513556 </v>
  </varray>
  <energy>
   <i name="e_fr_energy">     -9.46273323 </i>
   <i name="e_wo_entrp">     -9.45700066 </i>
   <i name="e_0_energy">     -0.01146515 </i>
  </energy>
  <time name="totalsc">    8.52    2.39</time>
 </calculation>
 <calculation>
  <scstep>
   <time name="dav">    1.08    0.27</time>
   <time name="total">    1.12    0.33</time>
   <energy>
    <i name="alphaZ">      3.04303757 </i>
    <i name="ewald">   -221.04686685 </i>
    <i name="hartreedc">     -9.76633460 </i>
    <i name="XCdc">    -18.59567915 </i>
    <i name="pawpsdc">   2584.43111045 </i>
    <i name="pawaedc">  -2549.83962401 </i>
    <i name="eentropy">     -0.00000000 </i>
    <i name="bandstr">     -6.07735478 </i>
    <i name="atom">    206.12968587 </i>
    <i name="e_fr_energy">    -11.72202550 </i>
    <i name="e_wo_entrp">    -11.72202550 </i>
    <i name="e_0_energy">    -11.72202550 </i>
   </energy>
  </scstep>
  <scstep>
   <time name="dav">    0.92    0.23</time>
   <time name="total">    0.96    0.24</time>
   <energy>
    <i name="e_fr_energy">    -11.12234354 </i>
    <i name="e_wo_entrp">    -11.12234354 </i>
    <i name="e_0_energy">    -11.12234354 </i>
   </energy>
  </scstep>
  <scstep>
   <time name="dav">    0.86    0.22</time>
   <time name="total">    0.91    0.23</time>
   <energy>
    <i name="e_fr_energy">    -10.80537565 </i>
    <i name="e_wo_entrp">    -10.80537565 </i>
    <i name="e_0_energy">    -10.80537565 </i>
   </energy>
  </scstep>
  <scstep>
   <time name="dav">    1.05    0.26</time>
   <time name="total">    1.09    0.27</time>
   <energy>
    <i name="e_fr_energy">    -10.80615828 </i>
    <i name="e_wo_entrp">    -10.80615828 </i>
    <i name="e_0_energy">    -10.80615828 </i>
   </energy>
  </scstep>
  <scstep>
   <time name="dav">    0.89    0.22</time>
   <time name="total">    0.93    0.23</time>
   <energy>
    <i name="e_fr_energy">    -10.80688885 </i>
    <i name="e_wo_entrp">    -10.80688885 </i>
    <i name="e_0_energy">    -10.80688885 </i>
   </energy>
  </scstep>
  <scstep>
   <time name="dav">    1.25    0.31</time>
   <time name="total">    1.29    0.32</time>
   <energy>
    <i name="e_fr_energy">    -10.80689981 </i>
    <i name="e_wo_entrp">    -10.80689981 </i>
    <i name="e_0_energy">    -10.80689981 </i>
   </energy>
  </scstep>
  <scstep>
   <time name="dav">    0.84    0.21</time>
   <time name="total">    0.88    0.22</time>
   <energy>
    <i name="e_fr_energy">    -10.80694951 </i>
    <i name="e_wo_entrp">    -10.80694951 </i>
    <i name="e_0_energy">    -10.80694951 </i>
   </energy>
  </scstep>
  <scstep>
   <time name="dav">    0.63    0.16</time>
   <time name="total">    0.65    0.16</time>
   <energy>
    <i name="alphaZ">      3.04303757 </i>
    <i name="ewald">   -221.04686685 </i>
    <i name="hartreedc">    -16.27391763 </i>
    <i name="XCdc">    -18.34907500 </i>
    <i name="pawpsdc">   1337.06823706 </i>
    <i name="pawaedc">  -1302.03528580 </i>
    <i name="eentropy">     -0.00000000 </i>
    <i name="bandstr">      0.65723659 </i>
    <i name="atom">    206.12968587 </i>
    <i name="e_fr_energy">    -10.80694818 </i>
    <i name="e_wo_entrp">    -10.80694818 </i>
    <i name="e_0_energy">    -10.80694818 </i>
   </energy>
  </scstep>
  <structure>
   <crystal>
    <varray name="basis" >
     <v>      -0.00000000      -2.80732308      -2.80732308 </v>
     <v>       2.80732308      -0.00000000      -2.80732308 </v>
     <v>       2.80732308      -2.80732308       0.00000000 </v>
    </varray>
    <i name="volume">     44.24937922 </i>
    <varray name="rec_basis" >
     <v>      -0.17810561      -0.17810561      -0.17810561 </v>
     <v>       0.17810561       0.17810561      -0.17810561 </v>
     <v>       0.17810561      -0.17810561       0.17810561 </v>
    </varray>
   </crystal>
   <varray name="positions" >
    <v>       0.00000000      -0.00000000       0.00000000 </v>
    <v>       0.25000000       0.25000000       0.25000000 </v>
   </varray>
  </structure>
  <varray name="forces" >
   <v>      -0.00000000       0.00000000       0.00000000 </v>
   <v>       0.00000000      -0.00000000      -0.00000000 </v>
  </varray>
  <varray name="stress" >
   <v>     -71.96666642       0.00000000       0.00000000 </v>
   <v>       0.00000000     -71.96666642       0.00000000 </v>
   <v>      -0.00000000       0.00000000     -71.96666642 </v>
  </varray>
  <energy>
   <i name="e_fr_energy">    -10.80694818 </i>
   <i name="e_wo_entrp">    -10.80694818 </i>
   <i name="e_0_energy">     -0.00000000 </i>
  </energy>
  <time name="totalsc">    8.59    2.41</time>
 </calculation>
 <calculation>
  <scstep>
   <time name="dav">    0.94    0.24</time>
   <time name="total">    0.98    0.29</time>
   <energy>
    <i name="alphaZ">      3.41921903 </i>
    <i name="ewald">   -229.80399074 </i>
    <i name="hartreedc">    -16.91850402 </i>
    <i name="XCdc">    -17.79330807 </i>
    <i name="pawpsdc">   1340.50634472 </i>
    <i name="pawaedc">  -1305.47308303 </i>
    <i name="eentropy">     -0.00008530 </i>
    <i name="bandstr">      8.96201894 </i>
    <i name="atom">    206.12968587 </i>
    <i name="e_fr_energy">    -10.97170259 </i>
    <i name="e_wo_entrp">    -10.97161729 </i>
    <i name="e_0_energy">    -10.97165994 </i>
   </energy>
  </scstep>
  <scstep>
   <time name="dav">    1.00    0.25</time>
   <time name="total">    1.04    0.26</time>
   <energy>
    <i name="e_fr_energy">    -10.92180348 </i>
    <i name="e_wo_entrp">    -10.92178917 </i>
    <i name="e_0_energy">    -10.92179632 </i>
   </energy>
  </scstep>
  <scstep>
   <time name="dav">    0.88    0.22</time>
   <time name="total">    0.93    0.23</time>
   <energy>
    <i name="e_fr_energy">    -10.89574193 </i>
    <i name="e_wo_entrp">    -10.89574106 </i>
    <i name="e_0_energy">    -10.89574150 </i>
   </energy>
  </scstep>
  <scstep>
   <time name="dav">    1.07    0.27</time>
   <time name="total">    1.11    0.28</time>
   <energy>
    <i name="e_fr_energy">    -10.89575223 </i>
    <i name="e_wo_entrp">    -10.89575131 </i>
    <i name="e_0_energy">    -10.89575177 </i>
   </energy>
  </scstep>
  <scstep>
   <time name="dav">    0.90    0.22</time>
   <time name="total">    0.94    0.24</time>
   <energy>
    <i name="e_fr_energy">    -10.89573232 </i>
    <i name="e_wo_entrp">    -10.89573125 </i>
    <i name="e_0_energy">    -10.89573178 </i>
   </energy>
  </scstep>
  <scstep>
   <time name="dav">    0.76    0.19</time>
   <time name="total">    0.81    0.20</time>
   <energy>
    <i name="e_fr_energy">    -10.89572110 </i>
    <i name="e_wo_entrp">    -10.89572004 </i>
    <i name="e_0_energy">    -10.89572057 </i>
   </energy>
  </scstep>
  <scstep>
   <time name="dav">    0.51    0.13</time>
   <time name="total">    0.54    0.13</time>
   <energy>
    <i name="alphaZ">      3.41921903 </i>
    <i name="ewald">   -229.80399074 </i>
    <i name="hartreedc">    -14.87235703 </i>
    <i name="XCdc">    -17.82308385 </i>
    <i name="pawpsdc">   1635.99380078 </i>
    <i name="pawaedc">  -1601.06264897 </i>
    <i name="eentropy">     -0.00000107 </i>
    <i name="bandstr">      7.12365997 </i>
    <i name="atom">    206.12968587 </i>
    <i name="e_fr_energy">    -10.89571601 </i>
    <i name="e_wo_entrp">    -10.89571494 </i>
    <i name="e_0_energy">    -10.89571547 </i>
   </energy>
  </scstep>
  <structure>
   <crystal>
    <varray name="basis" >
     <v>      -0.00000000      -2.70034462      -2.70034462 </v>
     <v>       2.70034462      -0.00000000      -2.70034462 </v>
     <v>       2.70034462      -2.70034462       0.00000000 </v>
    </varray>
    <i name="volume">     39.38107563 </i>
    <varray name="rec_basis" >
     <v>      -0.18516155      -0.18516155      -0.18516155 </v>
     <v>       0.18516155       0.18516155      -0.18516155 </v>
     <v>       0.18516155      -0.18516155       0.18516155 </v>
    </varray>
   </crystal>
   <varray name="positions" >
    <v>       0.00000000      -0.00000000       0.00000000 </v>
    <v>       0.25000000       0.25000000       0.25000000 </v>
   </varray>
  </structure>
  <varray name="forces" >
   <v>      -0.00000000       0.00000000       0.00000000 </v>
   <v>       0.00000000      -0.00000000      -0.00000000 </v>
  </varray>
  <varray name="stress" >
   <v>      23.73556671      -0.00000000      -0.00000000 </v>
   <v>      -0.00000000      23.73556671       0.00000000 </v>
   <v>       0.00000000      -0.00000000      23.73556671 </v>
  </varray>
  <energy>
   <i name="e_fr_energy">    -10.89571601 </i>
   <i name="e_wo_entrp">    -10.89571547 </i>
   <i name="e_0_energy">     -0.00000107 </i>
  </energy>
  <time name="totalsc">    7.09    2.11</time>
  <eigenvalues>
   <array>
    <dimension dim="1">band</dimension>
    <dimension dim="2">kpoint</dimension>
    <dimension dim="3">spin</dimension>
    <field>eigene</field>
    <field>occ</field>
    <set>
     <set comment="spin 1">
      <set comment="kpoint 1">
       <r>   -6.0630    1.0000 </r>
       <r>    6.0661    1.0000 </r>
       <r>    6.0661    1.0000 </r>
       <r>    6.0664    1.0000 </r>
       <r>    8.6423    0.0000 </r>
       <r>    8.6423    0.0000 </r>
       <r>    8.6425    0.0000 </r>
       <r>    9.5774    0.0000 </r>
      </set>
      <set comment="kpoint 2">
       <r>   -6.0507    1.0000 </r>
       <r>    5.9849    1.0000 </r>
       <r>    6.0119    1.0000 </r>
       <r>    6.0121    1.0000 </r>
       <r>    8.6116    0.0000 </r>
       <r>    8.7119    0.0000 </r>
       <r>    8.7120    0.0000 </r>
       <r>    9.6566    0.0000 </r>
      </set>
      <set comment="kpoint 3">
       <r>   -6.0138    1.0000 </r>
       <r>    5.7611    1.0000 </r>
       <r>    5.8650    1.0000 </r>
       <r>    5.8652    1.0000 </r>
       <r>    8.5235    0.0000 </r>
       <r>    8.9050    0.0000 </r>
       <r>    8.9051    0.0000 </r>
       <r>    9.8698    0.0000 </r>
      </set>
      <set comment="kpoint 4">
       <r>   -5.9522    1.0000 </r>
       <r>    5.4367    1.0000 </r>
       <r>    5.6576    1.0000 </r>
       <r>    5.6578    1.0000 </r>
       <r>    8.3884    0.0000 </r>
       <r>    9.1890    0.0000 </r>
       <r>    9.1892    0.0000 </r>
       <r>   10.1587    0.0000 </r>
      </set>
      <set comment="kpoint 5">
       <r>   -5.8662    1.0000 </r>
       <r>    5.0493    1.0000 </r>
       <r>    5.4186    1.0000 </r>
       <r>    5.4188    1.0000 </r>
       <r>    8.2200    0.0000 </r>
       <r>    9.5348    0.0000 </r>
       <r>    9.5350    0.0000 </r>
       <r>   10.4439    0.0000 </r>
      </set>
      <set comment="kpoint 6">
       <r>   -5.7559    1.0000 </r>
       <r>    4.6237    1.0000 </r>
       <r>    5.1674    1.0000 </r>
       <r>    5.1675    1.0000 </r>
       <r>    8.0313    0.0000 </r>
       <r>    9.9224    0.0000 </r>
       <r>    9.9225    0.0000 </r>
       <r>   10.6083    0.0000 </r>
      </set>
      <set comment="kpoint 7">
       <r>   -5.6214    1.0000 </r>
       <r>    4.1761    1.0000 </r>
       <r>    4.9105    1.0000 </r>
       <r>    4.9107    1.0000 </r>
       <r>    7.8361    0.0000 </r>
       <r>   10.3427    0.0000 </r>
       <r>   10.3429    0.0000 </r>
       <r>   10.5383    0.0000 </r>
      </set>
      <set comment="kpoint 8">
       <r>   -5.4629    1.0000 </r>
       <r>    3.7129    1.0000 </r>
       <r>    4.6663    1.0000 </r>
       <r>    4.6664    1.0000 </r>
       <r>    7.6388    0.0000 </r>
       <r>   10.2519    0.0000 </r>
       <r>   10.7807    0.0000 </r>
       <r>   10.7809    0.0000 </r>
      </set>
      <set comment="kpoint 9">
       <r>   -5.2806    1.0000 </r>
       <r>    3.2410    1.0000 </r>
       <r>    4.4338    1.0000 </r>
       <r>    4.4339    1.0000 </r>
       <r>    7.4485    0.0000 </r>
       <r>    9.8653    0.0000 </r>
       <r>   11.2348    0.0000 </r>
       <r>   11.2350    0.0000 </r>
      </set>
      <set comment="kpoint 10">
       <r>   -5.0750    1.0000 </r>
       <r>    2.7639    1.0000 </r>
       <r>    4.2164    1.0000 </r>
       <r>    4.2165    1.0000 </r>
       <r>    7.2707    0.0000 </r>
       <r>    9.4511    0.0000 </r>
       <r>   11.7020    0.0000 </r>
       <r>   11.7022    0.0000 </r>
      </set>
      <set comment="kpoint 11">
       <r>   -4.8463    1.0000 </r>
       <r>    2.2840    1.0000 </r>
       <r>    4.0156    1.0000 </r>
       <r>    4.0157    1.0000 </r>
       <r>    7.1090    0.0000 </r>
       <r>    9.0427    0.0000 </r>
       <r>   12.1788    0.0000 </r>
       <r>   12.1790    0.0000 </r>
      </set>
      <set comment="kpoint 12">
       <r>   -4.5954    1.0000 </r>
       <r>    1.8024    1.0000 </r>
       <r>    3.8313    1.0000 </r>
       <r>    3.8314    1.0000 </r>
       <r>    6.9647    0.0000 </r>
       <r>    8.6290    0.0000 </r>
       <r>   12.6519    0.0000 </r>
       <r>   12.6521    0.0000 </r>
      </set>
      <set comment="kpoint 13">
       <r>   -4.3221    1.0000 </r>
       <r>    1.3230    1.0000 </r>
       <r>    3.6686    1.0000 </r>
       <r>    3.6687    1.0000 </r>
       <r>    6.8442    0.0000 </r>
       <r>    8.2717    0.0000 </r>
       <r>   13.1434    0.0000 </r>
       <r>   13.1436    0.0000 </r>
      </set>
      <set comment="kpoint 14">
       <r>   -4.0270    1.0000 </r>
       <r>    0.8468    1.0000 </r>
       <r>    3.5270    1.0000 </r>
       <r>    3.5271    1.0000 </r>
       <r>    6.7542    0.0000 </r>
       <r>    7.9480    0.0000 </r>
       <r>   13.6481    0.0000 </r>
       <r>   13.6483    0.0000 </r>
      </set>
      <set comment="kpoint 15">
       <r>   -3.7111    1.0000 </r>
       <r>    0.3752    1.0000 </r>
       <r>    3.4055    1.0000 </r>
       <r>    3.4057    1.0000 </r>
       <r>    6.6835    0.0000 </r>
       <r>    7.6594    0.0000 </r>
       <r>   14.1510    0.0000 </r>
       <r>   14.1512    0.0000 </r>
      </set>
      <set comment="kpoint 16">
       <r>   -3.3751    1.0000 </r>
       <r>   -0.0899    1.0000 </r>
       <r>    3.3057    1.0000 </r>
       <r>    3.3058    1.0000 </r>
       <r>    6.6402    0.0000 </r>
       <r>    7.4069    0.0000 </r>
       <r>   14.6580    0.0000 </r>
       <r>   14.6583    0.0000 </r>
      </set>
      <set comment="kpoint 17">
       <r>   -3.0197    1.0000 </r>
       <r>   -0.5467    1.0000 </r>
       <r>    3.2276    1.0000 </r>
       <r>    3.2277    1.0000 </r>
       <r>    6.6256    0.0001 </r>
       <r>    7.1906    0.0000 </r>
       <r>   15.1658    0.0000 </r>
       <r>   15.1661    0.0000 </r>
      </set>
      <set comment="kpoint 18">
       <r>   -2.6467    1.0000 </r>
       <r>   -0.9934    1.0000 </r>
       <r>    3.1715    1.0000 </r>
       <r>    3.1716    1.0000 </r>
       <r>    6.6345    0.0001 </r>
       <r>    7.0091    0.0000 </r>
       <r>   15.6425    0.0000 </r>
       <r>   15.6428    0.0000 </r>
      </set>
      <set comment="kpoint 19">
       <r>   -2.2562    1.0000 </r>
       <r>   -1.4283    1.0000 </r>
       <r>    3.1375    1.0000 </r>
       <r>    3.1377    1.0000 </r>
       <r>    6.6744    0.0000 </r>
       <r>    6.8638    0.0000 </r>
       <r>   16.0997    0.0000 </r>
       <r>   16.1000    0.0000 </r>
      </set>
      <set comment="kpoint 20">
       <r>   -1.8488    1.0000 </r>
       <r>   -1.8488    1.0000 </r>
       <r>    3.1274    1.0000 </r>
       <r>    3.1275    1.0000 </r>
       <r>    6.7527    0.0000 </r>
       <r>    6.7528    0.0000 </r>
       <r>   16.3556    0.0000 </r>
       <r>   16.3557    0.0000 </r>
      </set>
      <set comment="kpoint 21">
       <r>   -1.8488    1.0000 </r>
       <r>   -1.8488    1.0000 </r>
       <r>    3.1274    1.0000 </r>
       <r>    3.1275    1.0000 </r>
       <r>    6.7527    0.0000 </r>
       <r>    6.7528    0.0000 </r>
       <r>   16.3556    0.0000 </r>
       <r>   16.3557    0.0000 </r>
      </set>
      <set comment="kpoint 22">
       <r>   -1.8482    1.0000 </r>
       <r>   -1.8481    1.0000 </r>
       <r>    3.1173    1.0000 </r>
       <r>    3.1174    1.0000 </r>
       <r>    6.7698    0.0000 </r>
       <r>    6.7700    0.0000 </r>
       <r>   16.3229    0.0000 </r>
       <r>   16.3231    0.0000 </r>
      </set>
      <set comment="kpoint 23">
       <r>   -1.8450    1.0000 </r>
       <r>   -1.8450    1.0000 </r>
       <r>    3.0894    1.0000 </r>
       <r>    3.0895    1.0000 </r>
       <r>    6.8210    0.0000 </r>
       <r>    6.8212    0.0000 </r>
       <r>   16.2330    0.0000 </r>
       <r>   16.2332    0.0000 </r>
      </set>
      <set comment="kpoint 24">
       <r>   -1.8398    1.0000 </r>
       <r>   -1.8398    1.0000 </r>
       <r>    3.0449    1.0000 </r>
       <r>    3.0450    1.0000 </r>
       <r>    6.9044    0.0000 </r>
       <r>    6.9045    0.0000 </r>
       <r>   16.0733    0.0000 </r>
       <r>   16.0734    0.0000 </r>
      </set>
      <set comment="kpoint 25">
[...]
       <r>   -1.6492    1.0000 </r>
       <r>    2.2754    1.0000 </r>
       <r>    3.2756    1.0000 </r>
       <r>    6.9276    0.0000 </r>
       <r>    8.2407    0.0000 </r>
       <r>   15.0231    0.0000 </r>
       <r>   15.4823    0.0000 </r>
      </set>
      <set comment="kpoint 190">
       <r>   -1.9255    1.0000 </r>
       <r>   -1.6840    1.0000 </r>
       <r>    2.3799    1.0000 </r>
       <r>    3.2499    1.0000 </r>
       <r>    6.8979    0.0000 </r>
       <r>    8.0225    0.0000 </r>
       <r>   15.1924    0.0000 </r>
       <r>   15.6056    0.0000 </r>
      </set>
      <set comment="kpoint 191">
       <r>   -1.9084    1.0000 </r>
       <r>   -1.7154    1.0000 </r>
       <r>    2.4860    1.0000 </r>
       <r>    3.2266    1.0000 </r>
       <r>    6.8710    0.0000 </r>
       <r>    7.8147    0.0000 </r>
       <r>   15.3590    0.0000 </r>
       <r>   15.7245    0.0000 </r>
      </set>
      <set comment="kpoint 192">
       <r>   -1.8941    1.0000 </r>
       <r>   -1.7436    1.0000 </r>
       <r>    2.5917    1.0000 </r>
       <r>    3.2057    1.0000 </r>
       <r>    6.8469    0.0000 </r>
       <r>    7.6188    0.0000 </r>
       <r>   15.5217    0.0000 </r>
       <r>   15.8378    0.0000 </r>
      </set>
      <set comment="kpoint 193">
       <r>   -1.8823    1.0000 </r>
       <r>   -1.7684    1.0000 </r>
       <r>    2.6951    1.0000 </r>
       <r>    3.1872    1.0000 </r>
       <r>    6.8256    0.0000 </r>
       <r>    7.4366    0.0000 </r>
       <r>   15.6787    0.0000 </r>
       <r>   15.9441    0.0000 </r>
      </set>
      <set comment="kpoint 194">
       <r>   -1.8727    1.0000 </r>
       <r>   -1.7899    1.0000 </r>
       <r>    2.7938    1.0000 </r>
       <r>    3.1711    1.0000 </r>
       <r>    6.8071    0.0000 </r>
       <r>    7.2702    0.0000 </r>
       <r>   15.8279    0.0000 </r>
       <r>   16.0421    0.0000 </r>
      </set>
      <set comment="kpoint 195">
       <r>   -1.8654    1.0000 </r>
       <r>   -1.8082    1.0000 </r>
       <r>    2.8850    1.0000 </r>
       <r>    3.1574    1.0000 </r>
       <r>    6.7884    0.0000 </r>
       <r>    7.1215    0.0000 </r>
       <r>   15.9653    0.0000 </r>
       <r>   16.1282    0.0000 </r>
      </set>
      <set comment="kpoint 196">
       <r>   -1.8595    1.0000 </r>
       <r>   -1.8232    1.0000 </r>
       <r>    2.9658    1.0000 </r>
       <r>    3.1463    1.0000 </r>
       <r>    6.7755    0.0000 </r>
       <r>    6.9944    0.0000 </r>
       <r>   16.0895    0.0000 </r>
       <r>   16.2037    0.0000 </r>
      </set>
      <set comment="kpoint 197">
       <r>   -1.8550    1.0000 </r>
       <r>   -1.8347    1.0000 </r>
       <r>    3.0331    1.0000 </r>
       <r>    3.1375    1.0000 </r>
       <r>    6.7655    0.0000 </r>
       <r>    6.8914    0.0000 </r>
       <r>   16.1948    0.0000 </r>
       <r>   16.2652    0.0000 </r>
      </set>
      <set comment="kpoint 198">
       <r>   -1.8519    1.0000 </r>
       <r>   -1.8430    1.0000 </r>
       <r>    3.0839    1.0000 </r>
       <r>    3.1313    1.0000 </r>
       <r>    6.7583    0.0000 </r>
       <r>    6.8151    0.0000 </r>
       <r>   16.2763    0.0000 </r>
       <r>   16.3108    0.0000 </r>
      </set>
      <set comment="kpoint 199">
       <r>   -1.8494    1.0000 </r>
       <r>   -1.8472    1.0000 </r>
       <r>    3.1167    1.0000 </r>
       <r>    3.1286    1.0000 </r>
       <r>    6.7543    0.0000 </r>
       <r>    6.7685    0.0000 </r>
       <r>   16.3387    0.0000 </r>
       <r>   17.3852    0.0000 </r>
      </set>
      <set comment="kpoint 200">
       <r>   -1.8488    1.0000 </r>
       <r>   -1.8488    1.0000 </r>
       <r>    3.1274    1.0000 </r>
       <r>    3.1275    1.0000 </r>
       <r>    6.7527    0.0000 </r>
       <r>    6.7528    0.0000 </r>
       <r>   16.3556    0.0000 </r>
       <r>   16.3557    0.0000 </r>
      </set>
     </set>
    </set>
   </array>
  </eigenvalues>
  <separator name="orbital magnetization" >
   <v name="MAGDIPOLOUT">      0.00000000      0.00000000      0.00000000</v>
  </separator>
  <dos>
   <i name="efermi">      6.35960758 </i>
   <total>
    <array>
     <dimension dim="1">gridpoints</dimension>
     <dimension dim="2">spin</dimension>
     <field>energy</field>
     <field>total</field>
     <field>integrated</field>
     <set>
      <set comment="spin 1">
       <r>    -7.2354     0.0000     0.0000 </r>
       <r>    -7.1495     0.0000     0.0000 </r>
       <r>    -7.0635     0.0000     0.0000 </r>
       <r>    -6.9775     0.0000     0.0000 </r>
       <r>    -6.8915     0.0000     0.0000 </r>
       <r>    -6.8056     0.0000     0.0000 </r>
       <r>    -6.7196     0.0000     0.0000 </r>
       <r>    -6.6336     0.0000     0.0000 </r>
       <r>    -6.5476     0.0000     0.0000 </r>
       <r>    -6.4617     0.0000     0.0000 </r>
       <r>    -6.3757     0.0000     0.0000 </r>
       <r>    -6.2897     0.0004     0.0000 </r>
       <r>    -6.2037     0.0147     0.0013 </r>
       <r>    -6.1178     0.1536     0.0145 </r>
       <r>    -6.0318     0.4820     0.0559 </r>
       <r>    -5.9458     0.5640     0.1044 </r>
       <r>    -5.8598     0.3995     0.1388 </r>
       <r>    -5.7738     0.2967     0.1643 </r>
       <r>    -5.6879     0.2500     0.1858 </r>
       <r>    -5.6019     0.2217     0.2048 </r>
       <r>    -5.5159     0.2010     0.2221 </r>
       <r>    -5.4299     0.1870     0.2382 </r>
       <r>    -5.3440     0.1750     0.2532 </r>
       <r>    -5.2580     0.1634     0.2673 </r>
       <r>    -5.1720     0.1598     0.2810 </r>
       <r>    -5.0860     0.1476     0.2937 </r>
       <r>    -5.0001     0.1453     0.3062 </r>
       <r>    -4.9141     0.1420     0.3184 </r>
       <r>    -4.8281     0.1302     0.3296 </r>
       <r>    -4.7421     0.1379     0.3415 </r>
       <r>    -4.6561     0.1226     0.3520 </r>
       <r>    -4.5702     0.1312     0.3633 </r>
       <r>    -4.4842     0.1194     0.3736 </r>
       <r>    -4.3982     0.1219     0.3840 </r>
       <r>    -4.3122     0.1240     0.3947 </r>
       <r>    -4.2263     0.1136     0.4045 </r>
       <r>    -4.1403     0.1254     0.4153 </r>
       <r>    -4.0543     0.1133     0.4250 </r>
       <r>    -3.9683     0.1280     0.4360 </r>
       <r>    -3.8824     0.1314     0.4473 </r>
       <r>    -3.7964     0.1902     0.4637 </r>
       <r>    -3.7104     0.5268     0.5089 </r>
       <r>    -3.6244     0.9692     0.5923 </r>
       <r>    -3.5385     0.8614     0.6663 </r>
       <r>    -3.4525     0.5851     0.7166 </r>
       <r>    -3.3665     0.4860     0.7584 </r>
       <r>    -3.2805     0.4514     0.7972 </r>
       <r>    -3.1945     0.3841     0.8303 </r>
       <r>    -3.1086     0.3292     0.8586 </r>
       <r>    -3.0226     0.3544     0.8890 </r>
       <r>    -2.9366     0.3639     0.9203 </r>
       <r>    -2.8506     0.2939     0.9456 </r>
       <r>    -2.7647     0.2753     0.9693 </r>
       <r>    -2.6787     0.3212     0.9969 </r>
       <r>    -2.5927     0.3213     1.0245 </r>
       <r>    -2.5067     0.2900     1.0494 </r>
       <r>    -2.4208     0.3093     1.0760 </r>
       <r>    -2.3348     0.4973     1.1188 </r>
       <r>    -2.2488     1.0980     1.2132 </r>
       <r>    -2.1628     1.3815     1.3320 </r>
       <r>    -2.0768     1.0804     1.4249 </r>
       <r>    -1.9909     0.9920     1.5102 </r>
       <r>    -1.9049     1.5196     1.6408 </r>
       <r>    -1.8189     2.6190     1.8660 </r>
       <r>    -1.7329     2.8398     2.1101 </r>
       <r>    -1.6470     2.1893     2.2984 </r>
       <r>    -1.5610     1.2519     2.4060 </r>
       <r>    -1.4750     0.8513     2.4792 </r>
       <r>    -1.3890     1.0068     2.5657 </r>
       <r>    -1.3031     1.4691     2.6921 </r>
       <r>    -1.2171     1.6007     2.8297 </r>
       <r>    -1.1311     0.9779     2.9138 </r>
       <r>    -1.0451     1.0942     3.0078 </r>
       <r>    -0.9591     1.7795     3.1608 </r>
       <r>    -0.8732     1.8701     3.3216 </r>
       <r>    -0.7872     1.3954     3.4416 </r>
       <r>    -0.7012     0.5077     3.4852 </r>
       <r>    -0.6152     0.1230     3.4958 </r>
       <r>    -0.5293     0.1570     3.5093 </r>
       <r>    -0.4433     0.1056     3.5184 </r>
       <r>    -0.3573     0.0376     3.5216 </r>
       <r>    -0.2713     0.0825     3.5287 </r>
       <r>    -0.1854     0.1067     3.5379 </r>
       <r>    -0.0994     0.0760     3.5444 </r>
       <r>    -0.0134     0.0758     3.5509 </r>
       <r>     0.0726     0.0971     3.5593 </r>
       <r>     0.1585     0.0900     3.5670 </r>
       <r>     0.2445     0.0370     3.5702 </r>
       <r>     0.3305     0.0507     3.5746 </r>
       <r>     0.4165     0.1166     3.5846 </r>
       <r>     0.5025     0.1098     3.5940 </r>
       <r>     0.5884     0.0567     3.5989 </r>
       <r>     0.6744     0.0240     3.6010 </r>
       <r>     0.7604     0.0569     3.6059 </r>
       <r>     0.8464     0.1065     3.6150 </r>
       <r>     0.9323     0.1069     3.6242 </r>
       <r>     1.0183     0.0578     3.6292 </r>
       <r>     1.1043     0.0313     3.6319 </r>
       <r>     1.1903     0.0561     3.6367 </r>
       <r>     1.2762     0.0715     3.6428 </r>
       <r>     1.3622     0.1035     3.6517 </r>
       <r>     1.4482     0.1167     3.6618 </r>
       <r>     1.5342     0.3265     3.6898 </r>
       <r>     1.6202     1.1169     3.7859 </r>
       <r>     1.7061     1.8145     3.9419 </r>
       <r>     1.7921     1.6481     4.0836 </r>
       <r>     1.8781     1.3892     4.2030 </r>
       <r>     1.9641     1.1731     4.3039 </r>
       <r>     2.0500     1.2009     4.4071 </r>
       <r>     2.1360     1.4659     4.5332 </r>
       <r>     2.2220     1.3928     4.6529 </r>
       <r>     2.3080     1.1085     4.7482 </r>
       <r>     2.3939     0.9853     4.8329 </r>
       <r>     2.4799     0.9099     4.9112 </r>
       <r>     2.5659     0.7806     4.9783 </r>
       <r>     2.6519     0.7989     5.0470 </r>
       <r>     2.7378     0.8391     5.1191 </r>
       <r>     2.8238     0.8042     5.1882 </r>
       <r>     2.9098     0.8307     5.2597 </r>
       <r>     2.9958     0.9639     5.3425 </r>
       <r>     3.0818     1.3093     5.4551 </r>
       <r>     3.1677     1.8138     5.6110 </r>
       <r>     3.2537     1.6104     5.7495 </r>
       <r>     3.3397     1.1502     5.8484 </r>
       <r>     3.4257     1.0363     5.9375 </r>
       <r>     3.5116     1.1603     6.0372 </r>
       <r>     3.5976     1.1879     6.1394 </r>
       <r>     3.6836     0.9419     6.2204 </r>
       <r>     3.7696     0.8569     6.2940 </r>
       <r>     3.8555     0.7442     6.3580 </r>
       <r>     3.9415     0.6079     6.4103 </r>
       <r>     4.0275     0.6464     6.4659 </r>
       <r>     4.1135     0.6767     6.5240 </r>
       <r>     4.1995     0.6616     6.5809 </r>
       <r>     4.2854     0.6612     6.6378 </r>
       <r>     4.3714     0.5954     6.6890 </r>
       <r>     4.4574     0.6579     6.7455 </r>
       <r>     4.5434     0.6960     6.8054 </r>
       <r>     4.6293     0.7905     6.8733 </r>
       <r>     4.7153     0.9787     6.9575 </r>
       <r>     4.8013     1.3675     7.0750 </r>
       <r>     4.8873     1.5370     7.2072 </r>
       <r>     4.9732     0.9662     7.2903 </r>
       <r>     5.0592     0.5819     7.3403 </r>
       <r>     5.1452     0.5144     7.3845 </r>
       <r>     5.2312     0.5067     7.4281 </r>
       <r>     5.3172     0.4448     7.4663 </r>
       <r>     5.4031     0.4258     7.5029 </r>
       <r>     5.4891     0.4491     7.5416 </r>
       <r>     5.5751     0.4493     7.5802 </r>
       <r>     5.6611     0.4947     7.6227 </r>
       <r>     5.7470     0.4931     7.6651 </r>
       <r>     5.8330     0.5212     7.7099 </r>
       <r>     5.9190     0.6772     7.7681 </r>
       <r>     6.0050     0.9852     7.8529 </r>
       <r>     6.0909     1.0988     7.9473 </r>
       <r>     6.1769     0.5276     7.9927 </r>
       <r>     6.2629     0.0815     7.9997 </r>
       <r>     6.3489     0.0035     8.0000 </r>
       <r>     6.4348     0.0010     8.0001 </r>
       <r>     6.5208     0.0223     8.0020 </r>
       <r>     6.6068     0.1636     8.0161 </r>
       <r>     6.6928     0.5489     8.0633 </r>
       <r>     6.7788     1.1177     8.1594 </r>
       <r>     6.8647     1.2299     8.2651 </r>
       <r>     6.9507     0.8976     8.3423 </r>
       <r>     7.0367     0.6880     8.4014 </r>
       <r>     7.1227     0.6018     8.4532 </r>
       <r>     7.2086     0.7039     8.5137 </r>
       <r>     7.2946     0.9784     8.5978 </r>
       <r>     7.3806     1.0073     8.6844 </r>
       <r>     7.4666     0.8536     8.7578 </r>
       <r>     7.5525     0.7673     8.8238 </r>
       <r>     7.6385     0.9702     8.9072 </r>
       <r>     7.7245     1.2389     9.0137 </r>
       <r>     7.8105     1.1056     9.1088 </r>
       <r>     7.8965     0.9347     9.1891 </r>
       <r>     7.9824     0.8916     9.2658 </r>
       <r>     8.0684     0.8465     9.3386 </r>
       <r>     8.1544     0.8311     9.4100 </r>
       <r>     8.2404     0.9226     9.4893 </r>
       <r>     8.3263     0.9660     9.5724 </r>
       <r>     8.4123     0.7335     9.6355 </r>
       <r>     8.4983     0.6132     9.6882 </r>
       <r>     8.5843     0.8076     9.7576 </r>
       <r>     8.6702     1.4809     9.8849 </r>
       <r>     8.7562     1.5587    10.0189 </r>
       <r>     8.8422     0.9824    10.1034 </r>
       <r>     8.9282     0.8909    10.1800 </r>
       <r>     9.0141     0.8907    10.2566 </r>
       <r>     9.1001     0.8305    10.3280 </r>
       <r>     9.1861     1.1362    10.4257 </r>
       <r>     9.2721     1.2311    10.5315 </r>
       <r>     9.3581     1.2277    10.6371 </r>
       <r>     9.4440     2.0879    10.8166 </r>
       <r>     9.5300     2.6074    11.0408 </r>
       <r>     9.6160     2.2628    11.2353 </r>
       <r>     9.7020     1.6221    11.3748 </r>
       <r>     9.7879     1.0342    11.4637 </r>
       <r>     9.8739     0.9121    11.5421 </r>
       <r>     9.9599     0.8561    11.6157 </r>
       <r>    10.0459     0.7520    11.6804 </r>
       <r>    10.1318     0.8664    11.7549 </r>
       <r>    10.2178     1.3105    11.8675 </r>
       <r>    10.3038     2.1841    12.0553 </r>
       <r>    10.3898     2.4805    12.2686 </r>
       <r>    10.4758     2.0033    12.4408 </r>
       <r>    10.5617     0.9943    12.5263 </r>
       <r>    10.6477     0.4212    12.5625 </r>
       <r>    10.7337     0.4329    12.5997 </r>
       <r>    10.8197     0.4902    12.6419 </r>
       <r>    10.9056     0.3202    12.6694 </r>
       <r>    10.9916     0.3534    12.6998 </r>
       <r>    11.0776     0.6988    12.7599 </r>
       <r>    11.1636     1.0417    12.8494 </r>
       <r>    11.2495     1.0733    12.9417 </r>
       <r>    11.3355     0.9838    13.0263 </r>
       <r>    11.4215     0.9524    13.1082 </r>
       <r>    11.5075     0.8197    13.1787 </r>
       <r>    11.5935     0.7767    13.2454 </r>
       <r>    11.6794     0.8088    13.3150 </r>
       <r>    11.7654     0.8354    13.3868 </r>
       <r>    11.8514     0.9651    13.4698 </r>
       <r>    11.9374     0.8869    13.5460 </r>
       <r>    12.0233     0.5745    13.5954 </r>
       <r>    12.1093     0.5282    13.6408 </r>
       <r>    12.1953     0.7670    13.7068 </r>
       <r>    12.2813     0.7895    13.7747 </r>
       <r>    12.3672     0.7254    13.8370 </r>
       <r>    12.4532     0.7482    13.9014 </r>
       <r>    12.5392     0.7694    13.9675 </r>
       <r>    12.6252     0.6550    14.0238 </r>
       <r>    12.7111     0.6290    14.0779 </r>
       <r>    12.7971     0.6906    14.1373 </r>
       <r>    12.8831     0.7711    14.2036 </r>
       <r>    12.9691     0.6155    14.2565 </r>
       <r>    13.0551     0.4371    14.2941 </r>
       <r>    13.1410     0.7331    14.3571 </r>
       <r>    13.2270     0.8318    14.4286 </r>
       <r>    13.3130     0.5337    14.4745 </r>
       <r>    13.3990     0.4267    14.5112 </r>
       <r>    13.4849     0.6311    14.5655 </r>
       <r>    13.5709     0.8280    14.6366 </r>
       <r>    13.6569     0.7999    14.7054 </r>
       <r>    13.7429     0.8581    14.7792 </r>
       <r>    13.8288     1.0605    14.8704 </r>
       <r>    13.9148     1.1854    14.9723 </r>
       <r>    14.0008     0.9926    15.0576 </r>
       <r>    14.0868     0.8134    15.1276 </r>
       <r>    14.1728     0.9158    15.2063 </r>
       <r>    14.2587     1.0330    15.2951 </r>
       <r>    14.3447     0.7217    15.3572 </r>
       <r>    14.4307     0.3045    15.3833 </r>
       <r>    14.5167     0.1701    15.3980 </r>
       <r>    14.6026     0.2257    15.4174 </r>
       <r>    14.6886     0.2883    15.4422 </r>
       <r>    14.7746     0.2140    15.4606 </r>
       <r>    14.8606     0.1823    15.4762 </r>
       <r>    14.9465     0.2339    15.4963 </r>
       <r>    15.0325     0.2178    15.5151 </r>
       <r>    15.1185     0.2067    15.5328 </r>
       <r>    15.2045     0.2888    15.5577 </r>
       <r>    15.2904     0.3000    15.5835 </r>
       <r>    15.3764     0.2141    15.6019 </r>
       <r>    15.4624     0.1651    15.6161 </r>
       <r>    15.5484     0.2368    15.6364 </r>
       <r>    15.6344     0.3318    15.6649 </r>
       <r>    15.7203     0.2934    15.6902 </r>
       <r>    15.8063     0.2424    15.7110 </r>
       <r>    15.8923     0.2738    15.7346 </r>
       <r>    15.9783     0.2579    15.7567 </r>
       <r>    16.0642     0.3437    15.7863 </r>
       <r>    16.1502     0.4464    15.8247 </r>
       <r>    16.2362     0.4822    15.8661 </r>
       <r>    16.3222     0.6390    15.9211 </r>
       <r>    16.4081     0.5787    15.9708 </r>
       <r>    16.4941     0.2015    15.9881 </r>
       <r>    16.5801     0.0211    15.9899 </r>
       <r>    16.6661     0.0006    15.9900 </r>
       <r>    16.7521     0.0000    15.9900 </r>
       <r>    16.8380     0.0000    15.9900 </r>
       <r>    16.9240     0.0000    15.9900 </r>
       <r>    17.0100     0.0000    15.9900 </r>
       <r>    17.0960     0.0000    15.9900 </r>
       <r>    17.1819     0.0002    15.9900 </r>
       <r>    17.2679     0.0054    15.9905 </r>
       <r>    17.3539     0.0326    15.9933 </r>
       <r>    17.4399     0.0525    15.9978 </r>
       <r>    17.5258     0.0228    15.9998 </r>
       <r>    17.6118     0.0026    16.0000 </r>
       <r>    17.6978     0.0001    16.0000 </r>
       <r>    17.7838     0.0000    16.0000 </r>
       <r>    17.8698     0.0000    16.0000 </r>
       <r>    17.9557     0.0000    16.0000 </r>
       <r>    18.0417     0.0000    16.0000 </r>
       <r>    18.1277     0.0000    16.0000 </r>
       <r>    18.2137     0.0000    16.0000 </r>
       <r>    18.2996     0.0000    16.0000 </r>
       <r>    18.3856     0.0000    16.0000 </r>
       <r>    18.4716     0.0000    16.0000 </r>
       <r>    18.5576     0.0000    16.0000 </r>
      </set>
     </set>
    </array>
   </total>
  </dos>
 </calculation>
 <structure name="finalpos" >
  <crystal>
   <varray name="basis" >
    <v>      -0.00000000      -2.70034462      -2.70034462 </v>
    <v>       2.70034462      -0.00000000      -2.70034462 </v>
    <v>       2.70034462      -2.70034462       0.00000000 </v>
   </varray>
   <i name="volume">     39.38107563 </i>
   <varray name="rec_basis" >
    <v>      -0.18516155      -0.18516155      -0.18516155 </v>
    <v>       0.18516155       0.18516155      -0.18516155 </v>
    <v>       0.18516155      -0.18516155       0.18516155 </v>
   </varray>
  </crystal>
  <varray name="positions" >
   <v>       0.00000000      -0.00000000       0.00000000 </v>
   <v>       0.25000000       0.25000000       0.25000000 </v>
  </varray>
 </structure>
</modeling>
